
     Program PWSCF v.7.2 starts on 23Jan2026 at  1: 2:46 

     This program is part of the open-source Quantum ESPRESSO suite
     for quantum simulation of materials; please cite
         "P. Giannozzi et al., J. Phys.:Condens. Matter 21 395502 (2009);
         "P. Giannozzi et al., J. Phys.:Condens. Matter 29 465901 (2017);
         "P. Giannozzi et al., J. Chem. Phys. 152 154105 (2020);
          URL http://www.quantum-espresso.org", 
     in publications or presentations arising from this work. More details at
     http://www.quantum-espresso.org/quote

     Parallel version (MPI), running on     4 processors

     MPI processes distributed on     1 nodes
     0 MiB available memory on the printing compute node when the environment starts

     Reading input from /Users/vittoriodibona/Desktop/Tutorial_LAMMPS/Esame/CopperQE/1_convergence/kpoints/Cu_k12.in

     Current dimensions of program PWSCF are:
     Max number of different atomic species (ntypx) = 10
     Max number of k-points (npk) =  40000
     Max angular momentum in pseudopotentials (lmaxx) =  4
     file Cu.pbe-dn-kjpaw_psl.1.0.0.UPF: wavefunction(s)  4S 3D renormalized
     Found identity + ( -0.5000 -0.5000  0.0000) symmetry
     This is a supercell, fractional translations are disabled

     R & G space division:  proc/nbgrp/npool/nimage =       4
     Subspace diagonalization in iterative solution of the eigenvalue problem:
     a serial algorithm will be used


     Parallelization info
     --------------------
     sticks:   dense  smooth     PW     G-vecs:    dense   smooth      PW
     Min         741     298     87                30351     7709    1235
     Max         742     302     88                30354     7710    1238
     Sum        2965    1201    349               121409    30839    4945

     Using Slab Decomposition



     bravais-lattice index     =            1
     lattice parameter (alat)  =       6.8219  a.u.
     unit-cell volume          =     317.4813 (a.u.)^3
     number of atoms/cell      =            4
     number of atomic types    =            1
     number of electrons       =        44.00
     number of Kohn-Sham states=           26
     kinetic-energy cutoff     =      80.0000  Ry
     charge density cutoff     =     800.0000  Ry
     scf convergence threshold =      1.0E-08
     mixing beta               =       0.7000
     number of iterations used =            8  plain     mixing
     Exchange-correlation= SLA  PW   PBX  PBC
                           (   1   4   3   4   0   0   0)

     celldm(1)=   6.821911  celldm(2)=   0.000000  celldm(3)=   0.000000
     celldm(4)=   0.000000  celldm(5)=   0.000000  celldm(6)=   0.000000

     crystal axes: (cart. coord. in units of alat)
               a(1) = (   1.000000   0.000000   0.000000 )  
               a(2) = (   0.000000   1.000000   0.000000 )  
               a(3) = (   0.000000   0.000000   1.000000 )  

     reciprocal axes: (cart. coord. in units 2 pi/alat)
               b(1) = (  1.000000  0.000000  0.000000 )  
               b(2) = (  0.000000  1.000000  0.000000 )  
               b(3) = (  0.000000  0.000000  1.000000 )  


     PseudoPot. # 1 for Cu read from file:
     /Users/vittoriodibona/Desktop/Tutorial_LAMMPS/Esame/CopperQE/pseudo/Cu.pbe-dn-kjpaw_psl.1.0.0.UPF
     MD5 check sum: cfffd1f38ee05704b3e17f46f1730a6f
     Pseudo is Projector augmented-wave + core cor, Zval = 11.0
     Generated using &quot;atomic&quot; code by A. Dal Corso  v.6.3
     Shape of augmentation charge: PSQ
     Using radial grid of 1199 points,  6 beta functions with: 
                l(1) =   0
                l(2) =   0
                l(3) =   1
                l(4) =   1
                l(5) =   2
                l(6) =   2
     Q(r) pseudized with 0 coefficients 


     atomic species   valence    mass     pseudopotential
        Cu            11.00    63.54600     Cu( 1.00)

     48 Sym. Ops., with inversion, found



   Cartesian axes

     site n.     atom                  positions (alat units)
         1           Cu  tau(   1) = (   0.0000000   0.0000000   0.0000000  )
         2           Cu  tau(   2) = (   0.5000000   0.5000000   0.0000000  )
         3           Cu  tau(   3) = (   0.5000000   0.0000000   0.5000000  )
         4           Cu  tau(   4) = (   0.0000000   0.5000000   0.5000000  )

     number of k points=    56  Marzari-Vanderbilt smearing, width (Ry)=  0.0200
                       cart. coord. in units 2pi/alat
        k(    1) = (   0.0416667   0.0416667   0.0416667), wk =   0.0092593
        k(    2) = (   0.0416667   0.0416667   0.1250000), wk =   0.0277778
        k(    3) = (   0.0416667   0.0416667   0.2083333), wk =   0.0277778
        k(    4) = (   0.0416667   0.0416667   0.2916667), wk =   0.0277778
        k(    5) = (   0.0416667   0.0416667   0.3750000), wk =   0.0277778
        k(    6) = (   0.0416667   0.0416667   0.4583333), wk =   0.0277778
        k(    7) = (   0.0416667   0.1250000   0.1250000), wk =   0.0277778
        k(    8) = (   0.0416667   0.1250000   0.2083333), wk =   0.0555556
        k(    9) = (   0.0416667   0.1250000   0.2916667), wk =   0.0555556
        k(   10) = (   0.0416667   0.1250000   0.3750000), wk =   0.0555556
        k(   11) = (   0.0416667   0.1250000   0.4583333), wk =   0.0555556
        k(   12) = (   0.0416667   0.2083333   0.2083333), wk =   0.0277778
        k(   13) = (   0.0416667   0.2083333   0.2916667), wk =   0.0555556
        k(   14) = (   0.0416667   0.2083333   0.3750000), wk =   0.0555556
        k(   15) = (   0.0416667   0.2083333   0.4583333), wk =   0.0555556
        k(   16) = (   0.0416667   0.2916667   0.2916667), wk =   0.0277778
        k(   17) = (   0.0416667   0.2916667   0.3750000), wk =   0.0555556
        k(   18) = (   0.0416667   0.2916667   0.4583333), wk =   0.0555556
        k(   19) = (   0.0416667   0.3750000   0.3750000), wk =   0.0277778
        k(   20) = (   0.0416667   0.3750000   0.4583333), wk =   0.0555556
        k(   21) = (   0.0416667   0.4583333   0.4583333), wk =   0.0277778
        k(   22) = (   0.1250000   0.1250000   0.1250000), wk =   0.0092593
        k(   23) = (   0.1250000   0.1250000   0.2083333), wk =   0.0277778
        k(   24) = (   0.1250000   0.1250000   0.2916667), wk =   0.0277778
        k(   25) = (   0.1250000   0.1250000   0.3750000), wk =   0.0277778
        k(   26) = (   0.1250000   0.1250000   0.4583333), wk =   0.0277778
        k(   27) = (   0.1250000   0.2083333   0.2083333), wk =   0.0277778
        k(   28) = (   0.1250000   0.2083333   0.2916667), wk =   0.0555556
        k(   29) = (   0.1250000   0.2083333   0.3750000), wk =   0.0555556
        k(   30) = (   0.1250000   0.2083333   0.4583333), wk =   0.0555556
        k(   31) = (   0.1250000   0.2916667   0.2916667), wk =   0.0277778
        k(   32) = (   0.1250000   0.2916667   0.3750000), wk =   0.0555556
        k(   33) = (   0.1250000   0.2916667   0.4583333), wk =   0.0555556
        k(   34) = (   0.1250000   0.3750000   0.3750000), wk =   0.0277778
        k(   35) = (   0.1250000   0.3750000   0.4583333), wk =   0.0555556
        k(   36) = (   0.1250000   0.4583333   0.4583333), wk =   0.0277778
        k(   37) = (   0.2083333   0.2083333   0.2083333), wk =   0.0092593
        k(   38) = (   0.2083333   0.2083333   0.2916667), wk =   0.0277778
        k(   39) = (   0.2083333   0.2083333   0.3750000), wk =   0.0277778
        k(   40) = (   0.2083333   0.2083333   0.4583333), wk =   0.0277778
        k(   41) = (   0.2083333   0.2916667   0.2916667), wk =   0.0277778
        k(   42) = (   0.2083333   0.2916667   0.3750000), wk =   0.0555556
        k(   43) = (   0.2083333   0.2916667   0.4583333), wk =   0.0555556
        k(   44) = (   0.2083333   0.3750000   0.3750000), wk =   0.0277778
        k(   45) = (   0.2083333   0.3750000   0.4583333), wk =   0.0555556
        k(   46) = (   0.2083333   0.4583333   0.4583333), wk =   0.0277778
        k(   47) = (   0.2916667   0.2916667   0.2916667), wk =   0.0092593
        k(   48) = (   0.2916667   0.2916667   0.3750000), wk =   0.0277778
        k(   49) = (   0.2916667   0.2916667   0.4583333), wk =   0.0277778
        k(   50) = (   0.2916667   0.3750000   0.3750000), wk =   0.0277778
        k(   51) = (   0.2916667   0.3750000   0.4583333), wk =   0.0555556
        k(   52) = (   0.2916667   0.4583333   0.4583333), wk =   0.0277778
        k(   53) = (   0.3750000   0.3750000   0.3750000), wk =   0.0092593
        k(   54) = (   0.3750000   0.3750000   0.4583333), wk =   0.0277778
        k(   55) = (   0.3750000   0.4583333   0.4583333), wk =   0.0277778
        k(   56) = (   0.4583333   0.4583333   0.4583333), wk =   0.0092593

     Dense  grid:   121409 G-vectors     FFT dimensions: (  64,  64,  64)

     Smooth grid:    30839 G-vectors     FFT dimensions: (  40,  40,  40)

     Estimated max dynamical RAM per process >     135.05 MB

     Estimated total dynamical RAM >     540.20 MB

     Initial potential from superposition of free atoms

     starting charge      43.9991, renormalised to      44.0000
     Starting wfcs are   36 randomized atomic wfcs
     Checking if some PAW data can be deallocated... 

     total cpu time spent up to now is      225.6 secs

     Self-consistent Calculation

     iteration #  1     ecut=    80.00 Ry     beta= 0.70
     Davidson diagonalization with overlap
     ethr =  1.00E-02,  avg # of iterations =  2.4

     Threshold (ethr) on eigenvalues was too large:
     Diagonalizing with lowered threshold

     Davidson diagonalization with overlap
     ethr =  3.78E-04,  avg # of iterations =  3.1

     total cpu time spent up to now is     1570.8 secs

     total energy              =    -852.25222196 Ry
     estimated scf accuracy    <       0.23201240 Ry

     iteration #  2     ecut=    80.00 Ry     beta= 0.70
     Davidson diagonalization with overlap
     ethr =  5.27E-04,  avg # of iterations =  2.8

     total cpu time spent up to now is     2328.8 secs

     total energy              =    -852.26885453 Ry
     estimated scf accuracy    <       0.76103674 Ry

     iteration #  3     ecut=    80.00 Ry     beta= 0.70
     Davidson diagonalization with overlap
     ethr =  5.27E-04,  avg # of iterations =  2.1

     total cpu time spent up to now is     3027.1 secs

     total energy              =    -852.38675481 Ry
     estimated scf accuracy    <       0.00113184 Ry

     iteration #  4     ecut=    80.00 Ry     beta= 0.70
     Davidson diagonalization with overlap
     ethr =  2.57E-06,  avg # of iterations =  5.8

     total cpu time spent up to now is     4243.2 secs

     total energy              =    -852.38807238 Ry
     estimated scf accuracy    <       0.00127637 Ry

     iteration #  5     ecut=    80.00 Ry     beta= 0.70
     Davidson diagonalization with overlap
     ethr =  2.57E-06,  avg # of iterations =  1.0

     total cpu time spent up to now is     4717.7 secs

     total energy              =    -852.38785116 Ry
     estimated scf accuracy    <       0.00065004 Ry

     iteration #  6     ecut=    80.00 Ry     beta= 0.70
     Davidson diagonalization with overlap
     ethr =  1.48E-06,  avg # of iterations =  2.0

     total cpu time spent up to now is     5385.6 secs

     total energy              =    -852.38797398 Ry
     estimated scf accuracy    <       0.00000503 Ry

     iteration #  7     ecut=    80.00 Ry     beta= 0.70
     Davidson diagonalization with overlap
     ethr =  1.14E-08,  avg # of iterations =  3.4

     total cpu time spent up to now is     6200.3 secs

     total energy              =    -852.38797607 Ry
     estimated scf accuracy    <       0.00000006 Ry

     iteration #  8     ecut=    80.00 Ry     beta= 0.70
     Davidson diagonalization with overlap
     ethr =  1.28E-10,  avg # of iterations =  4.7

     total cpu time spent up to now is     7259.2 secs

     total energy              =    -852.38797607 Ry
     estimated scf accuracy    <       0.00000060 Ry

     iteration #  9     ecut=    80.00 Ry     beta= 0.70
     Davidson diagonalization with overlap
     ethr =  1.28E-10,  avg # of iterations =  2.0

     total cpu time spent up to now is     7958.0 secs

     total energy              =    -852.38797605 Ry
     estimated scf accuracy    <       0.00000013 Ry

     iteration # 10     ecut=    80.00 Ry     beta= 0.70
     Davidson diagonalization with overlap
     ethr =  1.28E-10,  avg # of iterations =  2.1

     total cpu time spent up to now is     8661.7 secs

     End of self-consistent calculation

          k = 0.0417 0.0417 0.0417 (  3845 PWs)   bands (ev):

     3.3667   7.8519   7.8519   7.8519   8.3206   8.3206   8.3206   9.7078
     9.7341   9.7341  10.5532  10.5532  11.0988  11.0988  11.0988  11.1962
    11.1962  11.1962  11.2682  11.2682  11.2683  14.1709  14.1709  14.1709
    20.0669  20.0669

          k = 0.0417 0.0417 0.1250 (  3836 PWs)   bands (ev):

     3.5352   7.8450   7.9306   7.9306   8.3656   8.3679   8.3679   9.6611
     9.7708   9.7730  10.5085  10.5729  10.9210  10.9210  11.0451  11.0451
    11.0675  11.1144  11.2119  11.2646  11.2646  13.2884  14.5887  14.5887
    20.1360  20.1360

          k = 0.0417 0.0417 0.2083 (  3840 PWs)   bands (ev):

     3.8685   7.7944   8.0766   8.0766   8.4529   8.4633   8.4633   9.5656
     9.8485   9.8500  10.4252  10.5211  10.5211  10.6111  10.9336  10.9336
    10.9465  10.9902  11.1246  11.2637  11.2637  12.1757  15.2753  15.2753
    20.2801  20.2801

          k = 0.0417 0.0417 0.2917 (  3846 PWs)   bands (ev):

     4.3579   7.6110   8.2653   8.2653   8.5774   8.6076   8.6076   9.4312
     9.9587   9.9630  10.0987  10.0987  10.3192  10.6514  10.6652  10.7858
    10.7858  10.8491  11.0423  11.2634  11.2634  11.2878  16.1214  16.1214
    20.5070  20.5070

          k = 0.0417 0.0417 0.3750 (  3836 PWs)   bands (ev):

     4.9868   7.1767   8.4545   8.4545   8.7317   8.8017   8.8017   9.2684
     9.7017   9.7017  10.0625  10.1084  10.2474  10.2579  10.6330  10.6330
    10.6666  10.7319  10.8332  10.9649  11.2634  11.2634  17.0751  17.0751
    20.3680  20.3681

          k = 0.0417 0.0417 0.4583 (  3846 PWs)   bands (ev):

     5.7221   6.4959   8.5801   8.5801   8.9060   9.0468   9.0468   9.0891
     9.3499   9.3499  10.0447  10.0561  10.2806  10.3585  10.4709  10.5295
    10.5295  10.5667  10.8070  10.8860  11.2634  11.2634  18.1081  18.1081
    19.2267  19.2267

          k = 0.0417 0.1250 0.1250 (  3839 PWs)   bands (ev):

     3.7023   7.9275   7.9275   8.0055   8.4111   8.4111   8.4117   9.6327
     9.7918   9.8028  10.4982  10.5669  10.7428  10.8015  10.8015  10.9809
    11.0296  11.0296  11.2109  11.2109  11.2300  13.6958  13.6958  14.9558
    20.2048  21.3979

          k = 0.0417 0.1250 0.2083 (  3840 PWs)   bands (ev):

     4.0325   7.8847   8.0810   8.1447   8.4951   8.4994   8.5029   9.5522
     9.8580   9.8614  10.3943  10.4167  10.4334  10.5887  10.6055  10.8801
    10.9295  10.9532  11.1272  11.2036  11.2083  12.6046  14.3258  15.5876
    20.3342  21.4164

          k = 0.0417 0.1250 0.2917 (  3834 PWs)   bands (ev):

     4.5171   7.7127   8.2811   8.3267   8.6148   8.6285   8.6414   9.4282
     9.9338   9.9660   9.9820  10.0435  10.2923  10.3523  10.6727  10.7461
    10.7891  10.8105  11.0306  11.1983  11.1986  11.7242  15.0723  16.3903
    20.0000  20.7019

          k = 0.0417 0.1250 0.3750 (  3834 PWs)   bands (ev):

     5.1388   7.2918   8.4861   8.5161   8.7628   8.7917   8.8257   9.2747
     9.6041   9.6804   9.9705  10.0185  10.1039  10.3342  10.6072  10.6311
    10.6384  10.7582  10.8882  11.1943  11.1957  11.2063  15.8980  17.3046
    18.8751  20.6064

          k = 0.0417 0.1250 0.4583 (  3842 PWs)   bands (ev):

     5.8642   6.6252   8.6317   8.6447   8.9297   8.9904   9.0475   9.1044
     9.2856   9.3570   9.9079   9.9298  10.2647  10.4434  10.4538  10.5173
    10.5293  10.6638  10.8585  10.9823  11.1933  11.1939  16.7932  17.7328
    18.3950  19.4494

          k = 0.0417 0.2083 0.2083 (  3836 PWs)   bands (ev):

     4.3564   8.0535   8.0535   8.2705   8.5717   8.5799   8.5799   9.5035
     9.8835   9.9006  10.1786  10.1786  10.2069  10.4081  10.6406  10.7874
    10.8818  10.8818  11.1014  11.1014  11.1474  13.1923  13.1923  16.1484
    19.8357  20.6277

          k = 0.0417 0.2083 0.2917 (  3833 PWs)   bands (ev):

     4.8305   7.9037   8.2763   8.4360   8.6744   8.6896   8.7074   9.4095
     9.7932   9.9054   9.9287   9.9314   9.9881  10.3563  10.6706  10.7307
    10.7620  10.7657  10.9795  11.0831  11.1060  12.2441  13.8580  16.8793
    18.5730  20.8509

          k = 0.0417 0.2083 0.3750 (  3847 PWs)   bands (ev):

     5.4368   7.5093   8.5123   8.6219   8.7829   8.8248   8.8736   9.2808
     9.4538   9.6338   9.7635   9.8877  10.1110  10.3570  10.5525  10.5998
    10.6211  10.8299  10.8562  11.0739  11.0832  11.6045  14.5915  17.2722
    17.8874  21.0049

          k = 0.0417 0.2083 0.4583 (  3834 PWs)   bands (ev):

     6.1404   6.8732   8.7025   8.7647   8.8923   8.9757   9.0309   9.1317
     9.2099   9.3611   9.7422   9.8127  10.2568  10.4221  10.4647  10.4826
    10.5093  10.6438  11.0147  11.0706  11.0729  11.2352  15.4034  16.3104
    18.7953  19.8578

          k = 0.0417 0.2917 0.2917 (  3830 PWs)   bands (ev):

     5.2875   8.1570   8.1570   8.5664   8.7497   8.8018   8.8018   9.3596
     9.6119   9.6119   9.7593   9.8787  10.0440  10.3208  10.5707  10.6770
    10.6770  10.8571  10.9377  10.9377  11.0229  12.8163  12.8164  17.0965
    17.7155  21.1473

          k = 0.0417 0.2917 0.3750 (  3832 PWs)   bands (ev):

     5.8676   7.8008   8.4276   8.6885   8.8408   8.9166   8.9468   9.2749
     9.3445   9.5434   9.5577   9.8251  10.1318  10.3221  10.4703  10.5377
    10.5550  10.7720  10.9185  10.9644  11.0319  12.0568  13.4530  16.0173
    18.4599  21.5747

          k = 0.0417 0.2917 0.4583 (  3838 PWs)   bands (ev):

     6.5332   7.2159   8.6509   8.7492   8.9352   9.0411   9.0541   9.1645
     9.1966   9.3534   9.6036   9.7211  10.2411  10.3802  10.4152  10.4226
    10.4487  10.5902  10.9167  10.9307  11.2555  11.5679  14.1795  15.0263
    19.3963  20.4373

          k = 0.0417 0.3750 0.3750 (  3835 PWs)   bands (ev):

     6.4064   8.1174   8.1174   8.6602   8.9831   9.0352   9.0352   9.2467
     9.3702   9.3702   9.4529   9.7577  10.1549  10.3241  10.3787  10.4385
    10.4385  10.7465  10.7465  10.8635  11.2622  12.5749  12.5749  14.8891
    19.2405  22.0525

          k = 0.0417 0.3750 0.4583 (  3833 PWs)   bands (ev):

     7.0105   7.6118   8.3922   8.5717   9.1142   9.1202   9.1630   9.1932
     9.2506   9.3273   9.4975   9.6457  10.1998  10.3039  10.3223  10.3469
    10.4193  10.5719  10.7543  10.7927  11.5563  11.9654  13.1920  13.9514
    20.1487  21.1667

          k = 0.0417 0.4583 0.4583 (  3841 PWs)   bands (ev):

     7.5218   8.0017   8.0017   8.3283   9.2026   9.2026   9.2080   9.2619
     9.2940   9.4036   9.4036   9.5491  10.1795  10.2376  10.2376  10.2443
    10.4851  10.6033  10.6033  10.6789  11.9381  12.4587  12.4587  13.1028
    21.0303  22.0292

          k = 0.1250 0.1250 0.1250 (  3851 PWs)   bands (ev):

     3.8676   8.0049   8.0049   8.0049   8.4536   8.4536   8.4536   9.6096
     9.8167   9.8167  10.5288  10.5288  10.6316  10.6316  10.6316  10.9128
    10.9128  10.9128  11.2196  11.2196  11.2196  14.0341  14.0341  14.0341
    21.4953  21.4953

          k = 0.1250 0.1250 0.2083 (  3835 PWs)   bands (ev):

     4.1944   7.9671   8.1486   8.1486   8.5354   8.5385   8.5385   9.5415
     9.8634   9.8675  10.3041  10.3041  10.4151  10.4637  10.5869  10.7954
    10.8207  10.8207  11.1888  11.2005  11.2005  12.9178  14.5971  14.5971
    21.4998  21.4999

          k = 0.1250 0.1250 0.2917 (  3842 PWs)   bands (ev):

     4.6732   7.8032   8.3370   8.3370   8.6524   8.6621   8.6621   9.4293
     9.9243   9.9437   9.9437   9.9451  10.1319  10.4061  10.6482  10.6669
    10.7086  10.7086  11.1337  11.1769  11.1769  11.9789  15.2923  15.2923
    20.2801  20.2801

          k = 0.1250 0.1250 0.3750 (  3841 PWs)   bands (ev):

     5.2864   7.3948   8.5386   8.5386   8.7968   8.8076   8.8076   9.2863
     9.6107   9.6107   9.9040   9.9346  10.0494  10.4359  10.4875  10.5831
    10.5831  10.7617  11.0570  11.1607  11.1607  11.3239  16.0701  16.0701
    19.1201  19.1201

          k = 0.1250 0.1250 0.4583 (  3833 PWs)   bands (ev):

     5.9998   6.7450   8.6962   8.6962   8.9345   8.9345   8.9582   9.1252
     9.3604   9.3604   9.8333   9.8760  10.1784  10.3271  10.4927  10.4927
    10.6045  10.8636  10.8931  10.9646  11.1532  11.1532  16.8578  16.8578
    18.1440  18.1440

          k = 0.1250 0.2083 0.2083 (  3838 PWs)   bands (ev):

     4.5136   8.1193   8.1193   8.2718   8.6104   8.6164   8.6164   9.5017
     9.8825   9.8908  10.1044  10.1044  10.1131  10.4673  10.6112  10.6981
    10.7086  10.7086  11.1741  11.1763  11.1763  13.4210  13.4210  15.0747
    20.1241  21.9740

          k = 0.1250 0.2083 0.2917 (  3831 PWs)   bands (ev):

     4.9803   7.9688   8.3163   8.4297   8.7123   8.7294   8.7345   9.4206
     9.7814   9.8607   9.8777   9.9001   9.9442  10.4430  10.5628  10.5886
    10.6217  10.7064  11.1245  11.1350  11.1373  12.4075  14.0326  15.6803
    18.8397  20.6782

          k = 0.1250 0.2083 0.3750 (  3840 PWs)   bands (ev):

     5.5750   7.5851   8.5254   8.6027   8.8106   8.8631   8.8673   9.3047
     9.5094   9.6133   9.7316   9.8764  10.0212  10.4057  10.4863  10.4937
    10.5190  10.8309  11.0335  11.1009  11.1019  11.6682  14.7237  16.2878
    17.8104  19.5093

          k = 0.1250 0.2083 0.4583 (  3831 PWs)   bands (ev):

     6.2617   6.9718   8.7110   8.7700   8.8351   8.9052   9.0170   9.1663
     9.3715   9.4310   9.7223   9.7971  10.1252  10.2557  10.4197  10.4338
    10.6594  10.8778  10.9805  11.0825  11.0828  11.2124  15.4824  16.2290
    17.6886  18.4836

          k = 0.1250 0.2917 0.2917 (  3834 PWs)   bands (ev):

     5.4264   8.1779   8.1779   8.5246   8.8008   8.8453   8.8453   9.3865
     9.6267   9.6267   9.7364   9.8756   9.9644  10.4407  10.4706  10.4917
    10.4917  10.8265  11.0722  11.0722  11.0798  12.9321  12.9321  16.0871
    17.6862  21.2334

          k = 0.1250 0.2917 0.3750 (  3827 PWs)   bands (ev):

     5.9894   7.8290   8.3854   8.5946   8.9062   8.9775   8.9787   9.3199
     9.4367   9.5653   9.5991   9.8247  10.0073  10.3428  10.3732  10.4107
    10.4849  10.9650  10.9962  11.0188  11.0260  12.0973  13.5373  15.8566
    17.4638  20.0546

          k = 0.1250 0.2917 0.4583 (  3829 PWs)   bands (ev):

     6.6295   7.2777   8.5444   8.6149   8.9880   9.0367   9.1084   9.2247
     9.3893   9.4782   9.6164   9.7251  10.0855  10.2009  10.3188  10.3375
    10.6204  10.8047  10.9889  10.9918  11.2164  11.5477  14.2344  15.0332
    18.1160  19.0115

          k = 0.1250 0.3750 0.3750 (  3845 PWs)   bands (ev):

     6.5022   8.0769   8.0769   8.5299   9.0474   9.1193   9.1193   9.3191
     9.4405   9.4405   9.5613   9.7659  10.0072  10.2711  10.2769  10.2769
    10.5000  10.9008  10.9008  10.9480  11.2208  12.6009  12.6009  14.8679
    17.9961  20.7469

          k = 0.1250 0.3750 0.4583 (  3838 PWs)   bands (ev):

     7.0674   7.6179   8.2827   8.4300   9.1652   9.2159   9.2297   9.2918
     9.4087   9.4934   9.5305   9.6621  10.0501  10.1469  10.2102  10.2188
    10.5940  10.7471  10.8705  10.8884  11.5145  11.9430  13.2086  13.9584
    18.7695  19.6905

          k = 0.1250 0.4583 0.4583 (  3838 PWs)   bands (ev):

     7.5232   7.9402   7.9402   8.2108   9.3197   9.3471   9.3518   9.3518
     9.4560   9.4560   9.4663   9.5765  10.0455  10.1080  10.1080  10.1269
    10.6326  10.7385  10.7385  10.7924  11.8991  12.4387  12.4387  13.0944
    19.5711  20.5072

          k = 0.2083 0.2083 0.2083 (  3833 PWs)   bands (ev):

     4.8232   8.2345   8.2345   8.2345   8.6921   8.6921   8.6921   9.4843
     9.8870   9.8870   9.9486   9.9486   9.9486  10.5633  10.5633  10.5633
    10.5676  10.5676  11.1896  11.1896  11.1896  13.8258  13.8258  13.8258
    20.5281  20.5281

          k = 0.2083 0.2083 0.2917 (  3830 PWs)   bands (ev):

     5.2735   8.0787   8.3711   8.3711   8.8027   8.8027   8.8142   9.4353
     9.7516   9.7516   9.7724   9.8889   9.9041  10.4134  10.4607  10.4607
    10.5512  10.6893  11.1587  11.1587  11.1746  12.7237  14.3473  14.3473
    19.2358  19.2358

          k = 0.2083 0.2083 0.3750 (  3831 PWs)   bands (ev):

     5.8429   7.7167   8.5009   8.5009   8.9116   8.9116   8.9596   9.3517
     9.5885   9.5885   9.6721   9.8514   9.9502  10.2664  10.3753  10.3754
    10.6320  10.8172  11.1148  11.1148  11.1253  11.8661  14.9316  14.9316
    18.1391  18.1391

          k = 0.2083 0.2083 0.4583 (  3838 PWs)   bands (ev):

     6.4924   7.1527   8.5923   8.5923   8.9581   8.9581   9.1066   9.2399
     9.5169   9.5169   9.6845   9.7666  10.0277  10.1349  10.3139  10.3139
    10.8607  10.9390  11.0445  11.0852  11.0852  11.2593  15.4490  15.4490
    17.3651  17.3651

          k = 0.2083 0.2917 0.2917 (  3839 PWs)   bands (ev):

     5.6960   8.2001   8.2001   8.4112   8.9146   8.9417   8.9417   9.4391
     9.6503   9.6503   9.7046   9.8672   9.8909  10.3162  10.3162  10.3295
    10.5923  10.7779  11.1375  11.1528  11.1528  13.1591  13.1591  14.7331
    18.0146  19.7827

          k = 0.2083 0.2917 0.3750 (  3840 PWs)   bands (ev):

     6.2219   7.8694   8.3040   8.4270   9.0319   9.0710   9.1036   9.4161
     9.5759   9.6063   9.6628   9.8190   9.9071  10.1757  10.2366  10.2440
    10.6598  10.9338  11.0935  11.1013  11.1048  12.2068  13.6857  15.0179
    17.1875  18.6513

          k = 0.2083 0.2917 0.4583 (  3833 PWs)   bands (ev):

     6.8070   7.3838   8.3775   8.4175   9.1062   9.1264   9.2519   9.3566
     9.5937   9.6371   9.6390   9.7284   9.9625  10.0542  10.1834  10.1900
    10.8277  11.0019  11.0587  11.0609  11.1427  11.5324  14.2781  14.8362
    17.1217  17.7264

          k = 0.2083 0.3750 0.3750 (  3834 PWs)   bands (ev):

     6.6792   8.0116   8.0116   8.3343   9.1683   9.2582   9.2582   9.4792
     9.5807   9.5807   9.7153   9.7759   9.8873  10.1128  10.1128  10.1289
    10.6742  11.0423  11.0423  11.0447  11.1414  12.6567  12.6567  14.6121
    17.0439  19.3161

          k = 0.2083 0.3750 0.4583 (  3826 PWs)   bands (ev):

     7.1663   7.6257   8.1319   8.2364   9.2709   9.3146   9.4314   9.5052
     9.6061   9.6511   9.6870   9.7227   9.9182   9.9991  10.0676  10.0690
    10.7750  10.9260  10.9948  10.9984  11.4307  11.9037  13.2187  13.8978
    17.5381  18.3288

          k = 0.2083 0.4583 0.4583 (  3834 PWs)   bands (ev):

     7.5248   7.8497   7.8497   8.0503   9.4096   9.4903   9.4903   9.6141
     9.6377   9.6758   9.6758   9.7508   9.9092   9.9671   9.9671   9.9861
    10.7938  10.8898  10.8898  10.9246  11.8163  12.3907  12.3907  13.0495
    18.2265  19.0942

          k = 0.2917 0.2917 0.2917 (  3821 PWs)   bands (ev):

     6.0781   8.2087   8.2087   8.2087   9.0783   9.0783   9.0783   9.5084
     9.6812   9.6812   9.6812   9.8477   9.8477  10.1837  10.1837  10.1837
    10.7469  10.7469  11.1659  11.1659  11.1659  13.4772  13.4772  13.4772
    18.5242  18.5242

          k = 0.2917 0.2917 0.3750 (  3831 PWs)   bands (ev):

     6.5410   7.9075   8.2066   8.2066   9.2018   9.2018   9.2691   9.5679
     9.6746   9.7321   9.7321   9.8024   9.8417  10.0521  10.0978  10.0978
    10.8117  10.8904  11.1331  11.1331  11.1546  12.4203  13.8379  13.8379
    17.5230  17.5230

          k = 0.2917 0.2917 0.4583 (  3838 PWs)   bands (ev):

     7.0371   7.5090   8.2026   8.2026   9.2633   9.2633   9.4539   9.5693
     9.6849   9.7278   9.7947   9.7947   9.8751   9.9467  10.0483  10.0484
    11.0118  11.0789  11.0959  11.0959  11.1021  11.6127  14.1216  14.1216
    16.9133  16.9133

          k = 0.2917 0.3750 0.3750 (  3833 PWs)   bands (ev):

     6.9101   7.9425   7.9425   8.1148   9.3239   9.3917   9.3917   9.7472
     9.7776   9.7969   9.7969   9.8024   9.8821   9.9772   9.9772   9.9916
    10.8349  11.0378  11.1162  11.1290  11.1290  12.7455  12.7455  13.8537
    16.8458  18.1041

          k = 0.2917 0.3750 0.4583 (  3829 PWs)   bands (ev):

     7.2864   7.6355   7.9836   8.0396   9.4025   9.4279   9.5690   9.7013
     9.8121   9.8376   9.8646   9.8954   9.9077   9.9336   9.9670   9.9777
    10.9455  11.0701  11.0826  11.0852  11.3092  11.8714  13.1615  13.5922
    16.7915  17.2730

          k = 0.2917 0.4583 0.4583 (  3826 PWs)   bands (ev):

     7.5302   7.7612   7.7612   7.8934   9.5109   9.5687   9.5687   9.6639
     9.7996   9.8394   9.8394   9.8605  10.0615  10.0656  10.0656  10.0984
    10.9369  11.0193  11.0193  11.0357  11.6811  12.2984  12.2984  12.8990
    17.1972  17.9134

          k = 0.3750 0.3750 0.3750 (  3827 PWs)   bands (ev):

     7.1631   7.8872   7.8872   7.8872   9.4832   9.4832   9.4832   9.7578
     9.7578   9.8774   9.8774   9.8774  10.0546  10.0546  10.0546  10.1041
    10.9710  10.9710  11.1476  11.1476  11.1476  12.8556  12.8556  12.8556
    17.1887  17.1887

          k = 0.3750 0.3750 0.4583 (  3836 PWs)   bands (ev):

     7.4141   7.6547   7.8569   7.8569   9.5292   9.5292   9.6160   9.7071
     9.7559   9.7968   9.8269   9.8269  10.2213  10.2426  10.2426  10.3095
    11.0729  11.1232  11.1232  11.1332  11.2125  11.9187  12.9417  12.9417
    16.6783  16.6783

          k = 0.3750 0.4583 0.4583 (  3832 PWs)   bands (ev):

     7.5479   7.6936   7.6936   7.7598   9.6011   9.6297   9.6297   9.6933
     9.7267   9.7555   9.7555   9.7654  10.4768  10.4925  10.4925  10.6169
    11.0476  11.1083  11.1083  11.1095  11.4869  12.1477  12.1477  12.5472
    16.6283  17.0456

          k = 0.4583 0.4583 0.4583 (  3870 PWs)   bands (ev):

     7.5879   7.6574   7.6574   7.6574   9.6652   9.6652   9.6652   9.6958
     9.6958   9.7091   9.7091   9.7091  10.8476  10.8476  10.8476  11.1163
    11.1163  11.1374  11.1374  11.1374  11.3720  11.9807  11.9807  11.9807
    16.5796  16.5796

     the Fermi energy is    12.7544 ev

!    total energy              =    -852.38797607 Ry
     total all-electron energy =    -13239.907040 Ry
     estimated scf accuracy    <          6.2E-11 Ry
     smearing contrib. (-TS)   =       0.00021770 Ry
     internal energy E=F+TS    =    -852.38819376 Ry

     The total energy is F=E-TS. E is the sum of the following terms:
     one-electron contribution =    -111.45331096 Ry
     hartree contribution      =     122.25955683 Ry
     xc contribution           =    -178.52177732 Ry
     ewald contribution        =    -325.28617016 Ry
     one-center paw contrib.   =    -359.38649216 Ry

     convergence has been achieved in  10 iterations

     Forces acting on atoms (cartesian axes, Ry/au):

     atom    1 type  1   force =     0.00000000    0.00000000    0.00000000
     atom    2 type  1   force =     0.00000000    0.00000000    0.00000000
     atom    3 type  1   force =     0.00000000    0.00000000    0.00000000
     atom    4 type  1   force =     0.00000000    0.00000000    0.00000000
     The non-local contrib.  to forces
     atom    1 type  1   force =     0.00000000    0.00000000    0.00000000
     atom    2 type  1   force =     0.00000000    0.00000000    0.00000000
     atom    3 type  1   force =     0.00000000    0.00000000    0.00000000
     atom    4 type  1   force =     0.00000000    0.00000000    0.00000000
     The ionic contribution  to forces
     atom    1 type  1   force =    -0.00000000   -0.00000000   -0.00000000
     atom    2 type  1   force =     0.00000000    0.00000000   -0.00000000
     atom    3 type  1   force =     0.00000000   -0.00000000    0.00000000
     atom    4 type  1   force =    -0.00000000    0.00000000    0.00000000
     The local contribution  to forces
     atom    1 type  1   force =     0.00000000    0.00000000    0.00000000
     atom    2 type  1   force =     0.00000000    0.00000000    0.00000000
     atom    3 type  1   force =     0.00000000   -0.00000000    0.00000000
     atom    4 type  1   force =     0.00000000    0.00000000    0.00000000
     The core correction contribution to forces
     atom    1 type  1   force =     0.00000000   -0.00000000   -0.00000000
     atom    2 type  1   force =     0.00000000    0.00000000   -0.00000000
     atom    3 type  1   force =     0.00000000   -0.00000000    0.00000000
     atom    4 type  1   force =     0.00000000    0.00000000    0.00000000
     The Hubbard contrib.    to forces
     atom    1 type  1   force =     0.00000000    0.00000000    0.00000000
     atom    2 type  1   force =     0.00000000    0.00000000    0.00000000
     atom    3 type  1   force =     0.00000000    0.00000000    0.00000000
     atom    4 type  1   force =     0.00000000    0.00000000    0.00000000
     The SCF correction term to forces
     atom    1 type  1   force =     0.00000000   -0.00000000   -0.00000000
     atom    2 type  1   force =     0.00000000    0.00000000   -0.00000000
     atom    3 type  1   force =     0.00000000    0.00000000   -0.00000000
     atom    4 type  1   force =     0.00000000    0.00000000    0.00000000

     Total force =     0.000000     Total SCF correction =     0.000000


     Computing stress (Cartesian axis) and pressure

          total   stress  (Ry/bohr**3)                   (kbar)     P=       23.45
   0.00015941   0.00000000   0.00000000           23.45        0.00        0.00
   0.00000000   0.00015941   0.00000000            0.00       23.45        0.00
   0.00000000   0.00000000   0.00015941            0.00        0.00       23.45


     Writing all to output data dir /Users/vittoriodibona/Desktop/Tutorial_LAMMPS/Esame/CopperQE/tmp/Cu_k12.save/

     init_run     :    396.37s CPU    225.21s WALL (       1 calls)
     electrons    :  15199.92s CPU   8436.35s WALL (       1 calls)
     forces       :    517.04s CPU    275.99s WALL (       1 calls)
     stress       :    108.73s CPU     58.78s WALL (       1 calls)

     Called by init_run:
     wfcinit      :    342.49s CPU    197.43s WALL (       1 calls)
     potinit      :      0.24s CPU      0.38s WALL (       1 calls)
     hinit0       :      0.49s CPU      0.40s WALL (       1 calls)

     Called by electrons:
     c_bands      :  13545.27s CPU   7544.47s WALL (      11 calls)
     sum_band     :   1118.66s CPU    618.38s WALL (      11 calls)
     v_of_rho     :      0.64s CPU      0.53s WALL (      11 calls)
     newd         :    584.46s CPU    296.96s WALL (      11 calls)
     PAW_pot      :      1.99s CPU      2.14s WALL (      11 calls)
     mix_rho      :      0.53s CPU      0.28s WALL (      11 calls)

     Called by c_bands:
     init_us_2    :      1.70s CPU      1.23s WALL (    1400 calls)
     init_us_2:cp :      1.68s CPU      1.23s WALL (    1400 calls)
     cegterg      :  13459.05s CPU   7482.00s WALL (     616 calls)

     Called by *egterg:
     cdiaghg      :    615.38s CPU    322.97s WALL (    2320 calls)
     h_psi        :   4899.08s CPU   2736.38s WALL (    2432 calls)
     s_psi        :    506.29s CPU    271.05s WALL (    2432 calls)
     g_psi        :      0.61s CPU      0.43s WALL (    1760 calls)

     Called by h_psi:
     h_psi:calbec :   3653.53s CPU   2099.43s WALL (    2432 calls)
     vloc_psi     :    748.17s CPU    363.60s WALL (    2432 calls)
     add_vuspsi   :    496.93s CPU    273.00s WALL (    2432 calls)

     General routines
     calbec       :   5138.09s CPU   2902.89s WALL (    3328 calls)
     fft          :      0.66s CPU      0.55s WALL (     167 calls)
     ffts         :      0.78s CPU      0.47s WALL (      22 calls)
     fftw         :    808.04s CPU    406.23s WALL (  109766 calls)
     interpolate  :      0.03s CPU      0.04s WALL (      11 calls)

     Parallel routines

     PWSCF        :      4h30m CPU      2h29m WALL


   This run was terminated on:   3:32:43  23Jan2026            

=------------------------------------------------------------------------------=
   JOB DONE.
=------------------------------------------------------------------------------=
