
     Program PWSCF v.7.2 starts on 22Jan2026 at 23:31:28 

     This program is part of the open-source Quantum ESPRESSO suite
     for quantum simulation of materials; please cite
         "P. Giannozzi et al., J. Phys.:Condens. Matter 21 395502 (2009);
         "P. Giannozzi et al., J. Phys.:Condens. Matter 29 465901 (2017);
         "P. Giannozzi et al., J. Chem. Phys. 152 154105 (2020);
          URL http://www.quantum-espresso.org", 
     in publications or presentations arising from this work. More details at
     http://www.quantum-espresso.org/quote

     Parallel version (MPI), running on     4 processors

     MPI processes distributed on     1 nodes
     0 MiB available memory on the printing compute node when the environment starts

     Reading input from /Users/vittoriodibona/Desktop/Tutorial_LAMMPS/Esame/CopperQE/1_convergence/kpoints/Cu_k10.in

     Current dimensions of program PWSCF are:
     Max number of different atomic species (ntypx) = 10
     Max number of k-points (npk) =  40000
     Max angular momentum in pseudopotentials (lmaxx) =  4
     file Cu.pbe-dn-kjpaw_psl.1.0.0.UPF: wavefunction(s)  4S 3D renormalized
     Found identity + ( -0.5000 -0.5000  0.0000) symmetry
     This is a supercell, fractional translations are disabled

     R & G space division:  proc/nbgrp/npool/nimage =       4
     Subspace diagonalization in iterative solution of the eigenvalue problem:
     a serial algorithm will be used


     Parallelization info
     --------------------
     sticks:   dense  smooth     PW     G-vecs:    dense   smooth      PW
     Min         741     298     87                30351     7709    1235
     Max         742     302     88                30354     7710    1238
     Sum        2965    1201    349               121409    30839    4945

     Using Slab Decomposition



     bravais-lattice index     =            1
     lattice parameter (alat)  =       6.8219  a.u.
     unit-cell volume          =     317.4813 (a.u.)^3
     number of atoms/cell      =            4
     number of atomic types    =            1
     number of electrons       =        44.00
     number of Kohn-Sham states=           26
     kinetic-energy cutoff     =      80.0000  Ry
     charge density cutoff     =     800.0000  Ry
     scf convergence threshold =      1.0E-08
     mixing beta               =       0.7000
     number of iterations used =            8  plain     mixing
     Exchange-correlation= SLA  PW   PBX  PBC
                           (   1   4   3   4   0   0   0)

     celldm(1)=   6.821911  celldm(2)=   0.000000  celldm(3)=   0.000000
     celldm(4)=   0.000000  celldm(5)=   0.000000  celldm(6)=   0.000000

     crystal axes: (cart. coord. in units of alat)
               a(1) = (   1.000000   0.000000   0.000000 )  
               a(2) = (   0.000000   1.000000   0.000000 )  
               a(3) = (   0.000000   0.000000   1.000000 )  

     reciprocal axes: (cart. coord. in units 2 pi/alat)
               b(1) = (  1.000000  0.000000  0.000000 )  
               b(2) = (  0.000000  1.000000  0.000000 )  
               b(3) = (  0.000000  0.000000  1.000000 )  


     PseudoPot. # 1 for Cu read from file:
     /Users/vittoriodibona/Desktop/Tutorial_LAMMPS/Esame/CopperQE/pseudo/Cu.pbe-dn-kjpaw_psl.1.0.0.UPF
     MD5 check sum: cfffd1f38ee05704b3e17f46f1730a6f
     Pseudo is Projector augmented-wave + core cor, Zval = 11.0
     Generated using &quot;atomic&quot; code by A. Dal Corso  v.6.3
     Shape of augmentation charge: PSQ
     Using radial grid of 1199 points,  6 beta functions with: 
                l(1) =   0
                l(2) =   0
                l(3) =   1
                l(4) =   1
                l(5) =   2
                l(6) =   2
     Q(r) pseudized with 0 coefficients 


     atomic species   valence    mass     pseudopotential
        Cu            11.00    63.54600     Cu( 1.00)

     48 Sym. Ops., with inversion, found



   Cartesian axes

     site n.     atom                  positions (alat units)
         1           Cu  tau(   1) = (   0.0000000   0.0000000   0.0000000  )
         2           Cu  tau(   2) = (   0.5000000   0.5000000   0.0000000  )
         3           Cu  tau(   3) = (   0.5000000   0.0000000   0.5000000  )
         4           Cu  tau(   4) = (   0.0000000   0.5000000   0.5000000  )

     number of k points=    35  Marzari-Vanderbilt smearing, width (Ry)=  0.0200
                       cart. coord. in units 2pi/alat
        k(    1) = (   0.0500000   0.0500000   0.0500000), wk =   0.0160000
        k(    2) = (   0.0500000   0.0500000   0.1500000), wk =   0.0480000
        k(    3) = (   0.0500000   0.0500000   0.2500000), wk =   0.0480000
        k(    4) = (   0.0500000   0.0500000   0.3500000), wk =   0.0480000
        k(    5) = (   0.0500000   0.0500000   0.4500000), wk =   0.0480000
        k(    6) = (   0.0500000   0.1500000   0.1500000), wk =   0.0480000
        k(    7) = (   0.0500000   0.1500000   0.2500000), wk =   0.0960000
        k(    8) = (   0.0500000   0.1500000   0.3500000), wk =   0.0960000
        k(    9) = (   0.0500000   0.1500000   0.4500000), wk =   0.0960000
        k(   10) = (   0.0500000   0.2500000   0.2500000), wk =   0.0480000
        k(   11) = (   0.0500000   0.2500000   0.3500000), wk =   0.0960000
        k(   12) = (   0.0500000   0.2500000   0.4500000), wk =   0.0960000
        k(   13) = (   0.0500000   0.3500000   0.3500000), wk =   0.0480000
        k(   14) = (   0.0500000   0.3500000   0.4500000), wk =   0.0960000
        k(   15) = (   0.0500000   0.4500000   0.4500000), wk =   0.0480000
        k(   16) = (   0.1500000   0.1500000   0.1500000), wk =   0.0160000
        k(   17) = (   0.1500000   0.1500000   0.2500000), wk =   0.0480000
        k(   18) = (   0.1500000   0.1500000   0.3500000), wk =   0.0480000
        k(   19) = (   0.1500000   0.1500000   0.4500000), wk =   0.0480000
        k(   20) = (   0.1500000   0.2500000   0.2500000), wk =   0.0480000
        k(   21) = (   0.1500000   0.2500000   0.3500000), wk =   0.0960000
        k(   22) = (   0.1500000   0.2500000   0.4500000), wk =   0.0960000
        k(   23) = (   0.1500000   0.3500000   0.3500000), wk =   0.0480000
        k(   24) = (   0.1500000   0.3500000   0.4500000), wk =   0.0960000
        k(   25) = (   0.1500000   0.4500000   0.4500000), wk =   0.0480000
        k(   26) = (   0.2500000   0.2500000   0.2500000), wk =   0.0160000
        k(   27) = (   0.2500000   0.2500000   0.3500000), wk =   0.0480000
        k(   28) = (   0.2500000   0.2500000   0.4500000), wk =   0.0480000
        k(   29) = (   0.2500000   0.3500000   0.3500000), wk =   0.0480000
        k(   30) = (   0.2500000   0.3500000   0.4500000), wk =   0.0960000
        k(   31) = (   0.2500000   0.4500000   0.4500000), wk =   0.0480000
        k(   32) = (   0.3500000   0.3500000   0.3500000), wk =   0.0160000
        k(   33) = (   0.3500000   0.3500000   0.4500000), wk =   0.0480000
        k(   34) = (   0.3500000   0.4500000   0.4500000), wk =   0.0480000
        k(   35) = (   0.4500000   0.4500000   0.4500000), wk =   0.0160000

     Dense  grid:   121409 G-vectors     FFT dimensions: (  64,  64,  64)

     Smooth grid:    30839 G-vectors     FFT dimensions: (  40,  40,  40)

     Estimated max dynamical RAM per process >     127.06 MB

     Estimated total dynamical RAM >     508.24 MB

     Initial potential from superposition of free atoms

     starting charge      43.9991, renormalised to      44.0000
     Starting wfcs are   36 randomized atomic wfcs
     Checking if some PAW data can be deallocated... 

     total cpu time spent up to now is      148.7 secs

     Self-consistent Calculation

     iteration #  1     ecut=    80.00 Ry     beta= 0.70
     Davidson diagonalization with overlap
     ethr =  1.00E-02,  avg # of iterations =  2.5

     Threshold (ethr) on eigenvalues was too large:
     Diagonalizing with lowered threshold

     Davidson diagonalization with overlap
     ethr =  3.77E-04,  avg # of iterations =  3.1

     total cpu time spent up to now is      997.2 secs

     total energy              =    -852.25196296 Ry
     estimated scf accuracy    <       0.23245962 Ry

     iteration #  2     ecut=    80.00 Ry     beta= 0.70
     Davidson diagonalization with overlap
     ethr =  5.28E-04,  avg # of iterations =  2.8

     total cpu time spent up to now is     1484.8 secs

     total energy              =    -852.26859611 Ry
     estimated scf accuracy    <       0.76517170 Ry

     iteration #  3     ecut=    80.00 Ry     beta= 0.70
     Davidson diagonalization with overlap
     ethr =  5.28E-04,  avg # of iterations =  2.0

     total cpu time spent up to now is     1930.0 secs

     total energy              =    -852.38700506 Ry
     estimated scf accuracy    <       0.00124251 Ry

     iteration #  4     ecut=    80.00 Ry     beta= 0.70
     Davidson diagonalization with overlap
     ethr =  2.82E-06,  avg # of iterations =  6.0

     total cpu time spent up to now is     2703.3 secs

     total energy              =    -852.38830363 Ry
     estimated scf accuracy    <       0.00129064 Ry

     iteration #  5     ecut=    80.00 Ry     beta= 0.70
     Davidson diagonalization with overlap
     ethr =  2.82E-06,  avg # of iterations =  1.1

     total cpu time spent up to now is     3012.8 secs

     total energy              =    -852.38820481 Ry
     estimated scf accuracy    <       0.00038615 Ry

     iteration #  6     ecut=    80.00 Ry     beta= 0.70
     Davidson diagonalization with overlap
     ethr =  8.78E-07,  avg # of iterations =  2.0

     total cpu time spent up to now is     3439.5 secs

     total energy              =    -852.38828284 Ry
     estimated scf accuracy    <       0.00000670 Ry

     iteration #  7     ecut=    80.00 Ry     beta= 0.70
     Davidson diagonalization with overlap
     ethr =  1.52E-08,  avg # of iterations =  2.8

     total cpu time spent up to now is     3892.8 secs

     total energy              =    -852.38828444 Ry
     estimated scf accuracy    <       0.00000021 Ry

     iteration #  8     ecut=    80.00 Ry     beta= 0.70
     Davidson diagonalization with overlap
     ethr =  4.78E-10,  avg # of iterations =  4.0

     total cpu time spent up to now is     4466.5 secs

     total energy              =    -852.38828442 Ry
     estimated scf accuracy    <       0.00000056 Ry

     iteration #  9     ecut=    80.00 Ry     beta= 0.70
     Davidson diagonalization with overlap
     ethr =  4.78E-10,  avg # of iterations =  2.0

     total cpu time spent up to now is     4844.4 secs

     total energy              =    -852.38828440 Ry
     estimated scf accuracy    <       0.00000012 Ry

     iteration # 10     ecut=    80.00 Ry     beta= 0.70
     Davidson diagonalization with overlap
     ethr =  2.66E-10,  avg # of iterations =  2.0

     total cpu time spent up to now is     5235.2 secs

     End of self-consistent calculation

          k = 0.0500 0.0500 0.0500 (  3839 PWs)   bands (ev):

     3.3948   7.8631   7.8631   7.8631   8.3312   8.3312   8.3312   9.7052
     9.7429   9.7429  10.5548  10.5548  11.0938  11.0938  11.0938  11.1636
    11.1636  11.1636  11.2671  11.2671  11.2671  14.1622  14.1622  14.1622
    20.1542  20.1542

          k = 0.0500 0.0500 0.1500 (  3840 PWs)   bands (ev):

     3.6368   7.8491   7.9750   7.9750   8.3954   8.3990   8.3990   9.6389
     9.7951   9.7978  10.4917  10.5838  10.7966  10.7966  11.0160  11.0160
    11.0391  11.0413  11.1956  11.2617  11.2617  13.0067  14.7319  14.7319
    20.2584  20.2584

          k = 0.0500 0.0500 0.2500 (  3845 PWs)   bands (ev):

     4.1126   7.7398   8.1748   8.1748   8.5183   8.5359   8.5359   9.5055
     9.9033   9.9058  10.3005  10.3005  10.3800  10.6391  10.7697  10.8642
    10.8642  10.9130  11.0967  11.2600  11.2600  11.7464  15.6293  15.6293
    20.4780  20.4780

          k = 0.0500 0.0500 0.3500 (  3842 PWs)   bands (ev):

     4.8023   7.3508   8.4089   8.4089   8.6896   8.7426   8.7426   9.3234
     9.8120   9.8120  10.0334  10.0625  10.2726  10.3256  10.6791  10.6791
    10.7130  10.7157  10.9909  11.0011  11.2595  11.2595  16.7091  16.7091
    20.5680  20.5680

          k = 0.0500 0.0500 0.4500 (  3846 PWs)   bands (ev):

     5.6615   6.5858   8.5817   8.5817   8.8939   9.0202   9.0202   9.1123
     9.3820   9.3820  10.0349  10.0468  10.2599  10.3657  10.4840  10.5389
    10.5389  10.6214  10.8065  10.9039  11.2593  11.2593  17.9082  17.9082
    19.2320  19.2320

          k = 0.0500 0.1500 0.1500 (  3841 PWs)   bands (ev):

     3.8756   7.9687   7.9687   8.0791   8.4594   8.4596   8.4596   9.6008
     9.8239   9.8338  10.4792  10.5762  10.5808  10.6242  10.6242  10.9276
    10.9827  10.9827  11.1923  11.1923  11.2141  13.5542  13.5542  15.2173
    20.3584  21.9474

          k = 0.0500 0.1500 0.2500 (  3839 PWs)   bands (ev):

     4.3449   7.8752   8.1838   8.2658   8.5758   8.5790   8.5889   9.4917
     9.8997   9.9163  10.1303  10.1894  10.3233  10.4001  10.6452  10.7941
    10.8536  10.8589  11.0891  11.1769  11.1826  12.3008  14.3462  16.0322
    20.1661  20.7306

          k = 0.0500 0.1500 0.3500 (  3840 PWs)   bands (ev):

     5.0236   7.5080   8.4417   8.4935   8.7374   8.7452   8.7819   9.3278
     9.6700   9.7695   9.9485   9.9954  10.0603  10.3510  10.6331  10.6619
    10.6795  10.7505  10.9486  11.1681  11.1683  11.4594  15.2637  17.0407
    18.7794  20.9260

          k = 0.0500 0.1500 0.4500 (  3845 PWs)   bands (ev):

     5.8663   6.7678   8.6494   8.6743   8.9293   8.9439   9.0199   9.1330
     9.2943   9.3911   9.8581   9.9001  10.2386  10.4438  10.4690  10.5160
    10.5349  10.7152  10.8836  11.0666  11.1636  11.1640  16.2842  17.3887
    18.3038  19.5432

          k = 0.0500 0.2500 0.2500 (  3830 PWs)   bands (ev):

     4.7999   8.1207   8.1207   8.4247   8.6666   8.6912   8.6912   9.4345
     9.8698   9.8699   9.8994   9.9665   9.9705  10.3698  10.6763  10.7289
    10.7726  10.7726  11.0414  11.0414  11.0970  12.9989  12.9989  16.7341
    18.5549  20.9313

          k = 0.0500 0.2500 0.3500 (  3840 PWs)   bands (ev):

     5.4545   7.7947   8.4209   8.6185   8.7776   8.8330   8.8612   9.3207
     9.4788   9.6706   9.6774   9.8754  10.0800  10.3456  10.5426  10.6058
    10.6288  10.8730  10.8894  11.0120  11.0391  12.0085  13.7883  16.9320
    17.8265  21.3659

          k = 0.0500 0.2500 0.4500 (  3834 PWs)   bands (ev):

     6.2593   7.1083   8.6886   8.8108   8.8453   8.9979   9.0178   9.1674
     9.2182   9.3908   9.6651   9.7772  10.2256  10.4058  10.4515  10.4541
    10.4905  10.6603  11.0028  11.0104  11.1072  11.4301  14.6898  15.7421
    18.8701  20.1100

          k = 0.0500 0.3500 0.3500 (  3827 PWs)   bands (ev):

     6.0664   8.1470   8.1470   8.6707   8.9057   8.9742   8.9742   9.2808
     9.4091   9.4091   9.5365   9.8084  10.1234  10.3231  10.4281  10.4998
    10.4998  10.8208  10.8208  10.9236  11.1201  12.6390  12.6390  15.5308
    18.6414  21.8670

          k = 0.0500 0.3500 0.4500 (  3836 PWs)   bands (ev):

     6.8017   7.5524   8.4598   8.6321   9.0547   9.0941   9.1296   9.2014
     9.2432   9.3656   9.5179   9.6859  10.1930  10.3303  10.3494  10.3823
    10.4201  10.6102  10.8131  10.8467  11.4297  11.8872  13.3947  14.3411
    19.6934  20.9053

          k = 0.0500 0.4500 0.4500 (  3833 PWs)   bands (ev):

     7.4206   8.0077   8.0077   8.3763   9.2037   9.2037   9.2177   9.2500
     9.3097   9.4030   9.4030   9.5778  10.1685  10.2450  10.2450  10.2499
    10.4821  10.6266  10.6266  10.7097  11.8538  12.4669  12.4669  13.2562
    20.7107  21.8989

          k = 0.1500 0.1500 0.1500 (  3839 PWs)   bands (ev):

     4.1107   8.0763   8.0763   8.0763   8.5179   8.5179   8.5179   9.5729
     9.8491   9.8491  10.4178  10.4178  10.4178  10.5315  10.5315  10.8226
    10.8226  10.8226  11.2132  11.2132  11.2132  13.9814  13.9814  13.9814
    22.0534  22.0534

          k = 0.1500 0.1500 0.2500 (  3831 PWs)   bands (ev):

     4.5718   7.9899   8.2679   8.2679   8.6318   8.6330   8.6330   9.4860
     9.8978   9.9050  10.0474  10.0474  10.1340  10.4628  10.6260  10.6593
    10.7045  10.7045  11.1808  11.1831  11.1831  12.6600  14.6718  14.6718
    20.5632  20.5632

          k = 0.1500 0.1500 0.3500 (  3837 PWs)   bands (ev):

     5.2367   7.6386   8.5021   8.5021   8.7835   8.7835   8.7906   9.3433
     9.6735   9.6735   9.8609   9.9189   9.9971  10.4693  10.4733  10.5744
    10.5744  10.7472  11.1087  11.1466  11.1466  11.6729  15.5073  15.5073
    19.1140  19.1140

          k = 0.1500 0.1500 0.4500 (  3836 PWs)   bands (ev):

     6.0576   6.9287   8.7273   8.7273   8.8747   8.8747   8.9756   9.1662
     9.4084   9.4084   9.7783   9.8466  10.1270  10.2897  10.4652  10.4652
    10.6617  10.8784  11.0039  11.0456  11.1267  11.1267  16.3751  16.3751
    17.9435  17.9435

          k = 0.1500 0.2500 0.2500 (  3832 PWs)   bands (ev):

     5.0151   8.1880   8.1880   8.4042   8.7274   8.7456   8.7456   9.4493
     9.8264   9.8264   9.8736   9.8939   9.9205  10.4846  10.5477  10.5503
    10.5503  10.6902  11.1495  11.1581  11.1581  13.2418  13.2418  15.2261
    18.9071  21.1213

          k = 0.1500 0.2500 0.3500 (  3833 PWs)   bands (ev):

     5.6490   7.8632   8.4120   8.5461   8.8518   8.8974   8.9037   9.3625
     9.5505   9.6620   9.6632   9.8677   9.9687  10.3699  10.4241  10.4517
    10.5171  10.8477  11.0824  11.0956  11.0995  12.1250  13.9584  15.8147
    17.6259  19.6572

          k = 0.1500 0.2500 0.4500 (  3833 PWs)   bands (ev):

     6.4201   7.2204   8.5950   8.6446   8.9334   8.9748   9.0748   9.2326
     9.4365   9.5069   9.6628   9.7702  10.0607  10.1986  10.3438  10.3597
    10.6908  10.9288  11.0542  11.0574  11.0582  11.4129  14.7859  15.6441
    17.4908  18.4137

          k = 0.1500 0.3500 0.3500 (  3834 PWs)   bands (ev):

     6.2272   8.1111   8.1111   8.5183   9.0014   9.0712   9.0712   9.3633
     9.4968   9.4968   9.6272   9.8131   9.9644  10.2884  10.2897  10.2897
    10.5281  11.0042  11.0042  11.0214  11.0659  12.7100  12.7100  15.3625
    17.3450  20.4179

          k = 0.1500 0.3500 0.4500 (  3838 PWs)   bands (ev):

     6.9069   7.5797   8.3119   8.4426   9.1350   9.1872   9.2311   9.3248
     9.4654   9.5610   9.5628   9.7022  10.0133  10.1305  10.2066  10.2177
    10.6425  10.8388  10.9496  10.9581  11.3699  11.8623  13.4347  14.3379
    18.0857  19.1420

          k = 0.1500 0.4500 0.4500 (  3834 PWs)   bands (ev):

     7.4394   7.9255   7.9255   8.2102   9.3215   9.3933   9.3933   9.4092
     9.4929   9.4929   9.5547   9.6126  10.0012  10.0793  10.0793  10.0997
    10.6709  10.8001  10.8001  10.8516  11.7946  12.4407  12.4407  13.2440
    18.9765  20.0776

          k = 0.2500 0.2500 0.2500 (  3836 PWs)   bands (ev):

     5.4321   8.2820   8.2820   8.2820   8.8646   8.8646   8.8646   9.4623
     9.7377   9.7377   9.7377   9.8836   9.8836  10.3734  10.3734  10.3734
    10.6463  10.6463  11.1810  11.1811  11.1811  13.6793  13.6793  13.6793
    19.4557  19.4557

          k = 0.2500 0.2500 0.3500 (  3834 PWs)   bands (ev):

     6.0193   7.9612   8.3587   8.3587   9.0166   9.0166   9.0546   9.4451
     9.6453   9.6529   9.6529   9.8464   9.8891  10.1998  10.2602  10.2602
    10.6889  10.8153  11.1388  11.1388  11.1620  12.4088  14.2342  14.2342
    18.0767  18.0767

          k = 0.2500 0.2500 0.4500 (  3837 PWs)   bands (ev):

     6.7141   7.4084   8.4009   8.4009   9.1057   9.1057   9.2435   9.3768
     9.6415   9.6415   9.6556   9.7516   9.9457  10.0520  10.1888  10.1889
    10.9466  10.9687  11.0887  11.0912  11.0912  11.5014  14.7436  14.7436
    17.1505  17.1505

          k = 0.2500 0.3500 0.3500 (  3827 PWs)   bands (ev):

     6.5226   8.0498   8.0498   8.2778   9.1747   9.2383   9.2383   9.5476
     9.6578   9.6578   9.7524   9.8120   9.8488  10.0978  10.0978  10.1156
    10.7310  10.9734  11.1137  11.1285  11.1285  12.8608  12.8608  14.4040
    17.0345  18.7869

          k = 0.2500 0.3500 0.4500 (  3839 PWs)   bands (ev):

     7.0861   7.6182   8.1239   8.1971   9.2879   9.3201   9.4683   9.5994
     9.6728   9.7227   9.7578   9.8147   9.8752   9.9637  10.0363  10.0394
    10.8653  11.0418  11.0666  11.0696  11.2545  11.8401  13.4502  14.0845
    16.9457  17.6541

          k = 0.2500 0.4500 0.4500 (  3826 PWs)   bands (ev):

     7.4683   7.8161   7.8161   8.0042   9.4432   9.5236   9.5236   9.6616
     9.8108   9.8312   9.8312   9.8503   9.9167   9.9263   9.9263   9.9345
    10.8608  10.9745  10.9745  10.9988  11.6678  12.3733  12.3733  13.1429
    17.5274  18.4826

          k = 0.3500 0.3500 0.3500 (  3842 PWs)   bands (ev):

     6.9002   7.9892   7.9892   7.9892   9.3879   9.3879   9.3879   9.7879
     9.7879   9.8337   9.8826   9.8826   9.8826   9.9605   9.9605   9.9605
    10.9111  10.9111  11.1562  11.1562  11.1562  13.0778  13.0778  13.0778
    17.5123  17.5123

          k = 0.3500 0.3500 0.4500 (  3828 PWs)   bands (ev):

     7.2954   7.6623   7.9528   7.9528   9.4620   9.4620   9.5853   9.7197
     9.7872   9.8467   9.8893   9.8893  10.0059  10.0464  10.0810  10.0810
    11.0507  11.1219  11.1219  11.1352  11.1429  11.9211  13.2698  13.2698
    16.7645  16.7645

          k = 0.3500 0.4500 0.4500 (  3842 PWs)   bands (ev):

     7.5081   7.7241   7.7241   7.8184   9.5670   9.6081   9.6081   9.6997
     9.7471   9.7884   9.7884   9.8022  10.3333  10.3333  10.3375  10.4218
    11.0141  11.1000  11.1000  11.1020  11.4604  12.2407  12.2408  12.7798
    16.6871  17.2777

          k = 0.4500 0.4500 0.4500 (  3858 PWs)   bands (ev):

     7.5718   7.6731   7.6731   7.6731   9.6588   9.6588   9.6588   9.7029
     9.7029   9.7220   9.7220   9.7220  10.7663  10.7663  10.7663  11.1115
    11.1115  11.1418  11.1418  11.1418  11.2556  12.0712  12.0712  12.0712
    16.6131  16.6131

     the Fermi energy is    12.7519 ev

!    total energy              =    -852.38828442 Ry
     total all-electron energy =    -13239.907349 Ry
     estimated scf accuracy    <          1.1E-09 Ry
     smearing contrib. (-TS)   =       0.00045708 Ry
     internal energy E=F+TS    =    -852.38874149 Ry

     The total energy is F=E-TS. E is the sum of the following terms:
     one-electron contribution =    -111.46206534 Ry
     hartree contribution      =     122.26949086 Ry
     xc contribution           =    -178.52405060 Ry
     ewald contribution        =    -325.28617016 Ry
     one-center paw contrib.   =    -359.38594625 Ry

     convergence has been achieved in  10 iterations

     Forces acting on atoms (cartesian axes, Ry/au):

     atom    1 type  1   force =     0.00000000    0.00000000    0.00000000
     atom    2 type  1   force =     0.00000000    0.00000000    0.00000000
     atom    3 type  1   force =     0.00000000    0.00000000    0.00000000
     atom    4 type  1   force =     0.00000000    0.00000000    0.00000000
     The non-local contrib.  to forces
     atom    1 type  1   force =     0.00000000    0.00000000    0.00000000
     atom    2 type  1   force =     0.00000000    0.00000000    0.00000000
     atom    3 type  1   force =     0.00000000    0.00000000    0.00000000
     atom    4 type  1   force =     0.00000000    0.00000000    0.00000000
     The ionic contribution  to forces
     atom    1 type  1   force =    -0.00000000   -0.00000000   -0.00000000
     atom    2 type  1   force =     0.00000000    0.00000000   -0.00000000
     atom    3 type  1   force =     0.00000000   -0.00000000    0.00000000
     atom    4 type  1   force =    -0.00000000    0.00000000    0.00000000
     The local contribution  to forces
     atom    1 type  1   force =    -0.00000000    0.00000000    0.00000000
     atom    2 type  1   force =     0.00000000    0.00000000   -0.00000000
     atom    3 type  1   force =     0.00000000   -0.00000000    0.00000000
     atom    4 type  1   force =     0.00000000    0.00000000    0.00000000
     The core correction contribution to forces
     atom    1 type  1   force =    -0.00000000   -0.00000000   -0.00000000
     atom    2 type  1   force =     0.00000000    0.00000000   -0.00000000
     atom    3 type  1   force =     0.00000000    0.00000000    0.00000000
     atom    4 type  1   force =    -0.00000000    0.00000000    0.00000000
     The Hubbard contrib.    to forces
     atom    1 type  1   force =     0.00000000    0.00000000    0.00000000
     atom    2 type  1   force =     0.00000000    0.00000000    0.00000000
     atom    3 type  1   force =     0.00000000    0.00000000    0.00000000
     atom    4 type  1   force =     0.00000000    0.00000000    0.00000000
     The SCF correction term to forces
     atom    1 type  1   force =     0.00000000    0.00000000    0.00000000
     atom    2 type  1   force =     0.00000000    0.00000000    0.00000000
     atom    3 type  1   force =    -0.00000000    0.00000000    0.00000000
     atom    4 type  1   force =    -0.00000000   -0.00000000    0.00000000

     Total force =     0.000000     Total SCF correction =     0.000000


     Computing stress (Cartesian axis) and pressure

          total   stress  (Ry/bohr**3)                   (kbar)     P=       24.11
   0.00016393   0.00000000   0.00000000           24.11        0.00        0.00
   0.00000000   0.00016393   0.00000000            0.00       24.11        0.00
   0.00000000   0.00000000   0.00016393            0.00        0.00       24.11


     Writing all to output data dir /Users/vittoriodibona/Desktop/Tutorial_LAMMPS/Esame/CopperQE/tmp/Cu_k10.save/

     init_run     :    267.62s CPU    148.46s WALL (       1 calls)
     electrons    :   9171.21s CPU   5086.52s WALL (       1 calls)
     forces       :    377.98s CPU    205.24s WALL (       1 calls)
     stress       :     61.22s CPU     37.34s WALL (       1 calls)

     Called by init_run:
     wfcinit      :    214.57s CPU    120.19s WALL (       1 calls)
     potinit      :      0.23s CPU      0.28s WALL (       1 calls)
     hinit0       :      0.44s CPU      0.43s WALL (       1 calls)

     Called by electrons:
     c_bands      :   7942.66s CPU   4424.46s WALL (      11 calls)
     sum_band     :    696.62s CPU    387.90s WALL (      11 calls)
     v_of_rho     :      0.68s CPU      0.60s WALL (      11 calls)
     newd         :    579.91s CPU    297.89s WALL (      11 calls)
     PAW_pot      :      2.25s CPU      2.45s WALL (      11 calls)
     mix_rho      :      0.36s CPU      0.20s WALL (      11 calls)

     Called by c_bands:
     init_us_2    :      0.82s CPU      0.60s WALL (     875 calls)
     init_us_2:cp :      0.82s CPU      0.60s WALL (     875 calls)
     cegterg      :   7885.42s CPU   4383.43s WALL (     385 calls)

     Called by *egterg:
     cdiaghg      :    371.44s CPU    189.84s WALL (    1404 calls)
     h_psi        :   2907.64s CPU   1626.22s WALL (    1474 calls)
     s_psi        :    301.96s CPU    161.24s WALL (    1474 calls)
     g_psi        :      0.15s CPU      0.07s WALL (    1054 calls)

     Called by h_psi:
     h_psi:calbec :   2167.19s CPU   1244.45s WALL (    1474 calls)
     vloc_psi     :    438.94s CPU    217.55s WALL (    1474 calls)
     add_vuspsi   :    301.14s CPU    163.98s WALL (    1474 calls)

     General routines
     calbec       :   3082.98s CPU   1749.91s WALL (    2034 calls)
     fft          :      0.64s CPU      0.67s WALL (     167 calls)
     ffts         :      0.26s CPU      0.24s WALL (      22 calls)
     fftw         :    477.25s CPU    244.46s WALL (   64712 calls)
     interpolate  :      0.04s CPU      0.06s WALL (      11 calls)

     Parallel routines

     PWSCF        :      2h44m CPU      1h31m WALL


   This run was terminated on:   1: 2:46  23Jan2026            

=------------------------------------------------------------------------------=
   JOB DONE.
=------------------------------------------------------------------------------=
