
     Program PWSCF v.7.2 starts on 22Jan2026 at 21:51:44 

     This program is part of the open-source Quantum ESPRESSO suite
     for quantum simulation of materials; please cite
         "P. Giannozzi et al., J. Phys.:Condens. Matter 21 395502 (2009);
         "P. Giannozzi et al., J. Phys.:Condens. Matter 29 465901 (2017);
         "P. Giannozzi et al., J. Chem. Phys. 152 154105 (2020);
          URL http://www.quantum-espresso.org", 
     in publications or presentations arising from this work. More details at
     http://www.quantum-espresso.org/quote

     Parallel version (MPI), running on     4 processors

     MPI processes distributed on     1 nodes
     0 MiB available memory on the printing compute node when the environment starts

     Reading input from /Users/vittoriodibona/Desktop/Tutorial_LAMMPS/Esame/CopperQE/1_convergence/kpoints/Cu_k4.in

     Current dimensions of program PWSCF are:
     Max number of different atomic species (ntypx) = 10
     Max number of k-points (npk) =  40000
     Max angular momentum in pseudopotentials (lmaxx) =  4
     file Cu.pbe-dn-kjpaw_psl.1.0.0.UPF: wavefunction(s)  4S 3D renormalized
     Found identity + ( -0.5000 -0.5000  0.0000) symmetry
     This is a supercell, fractional translations are disabled

     R & G space division:  proc/nbgrp/npool/nimage =       4
     Subspace diagonalization in iterative solution of the eigenvalue problem:
     a serial algorithm will be used


     Parallelization info
     --------------------
     sticks:   dense  smooth     PW     G-vecs:    dense   smooth      PW
     Min         741     298     85                30351     7709    1173
     Max         742     302     86                30354     7710    1176
     Sum        2965    1201    341               121409    30839    4697

     Using Slab Decomposition



     bravais-lattice index     =            1
     lattice parameter (alat)  =       6.8219  a.u.
     unit-cell volume          =     317.4813 (a.u.)^3
     number of atoms/cell      =            4
     number of atomic types    =            1
     number of electrons       =        44.00
     number of Kohn-Sham states=           26
     kinetic-energy cutoff     =      80.0000  Ry
     charge density cutoff     =     800.0000  Ry
     scf convergence threshold =      1.0E-08
     mixing beta               =       0.7000
     number of iterations used =            8  plain     mixing
     Exchange-correlation= SLA  PW   PBX  PBC
                           (   1   4   3   4   0   0   0)

     celldm(1)=   6.821911  celldm(2)=   0.000000  celldm(3)=   0.000000
     celldm(4)=   0.000000  celldm(5)=   0.000000  celldm(6)=   0.000000

     crystal axes: (cart. coord. in units of alat)
               a(1) = (   1.000000   0.000000   0.000000 )  
               a(2) = (   0.000000   1.000000   0.000000 )  
               a(3) = (   0.000000   0.000000   1.000000 )  

     reciprocal axes: (cart. coord. in units 2 pi/alat)
               b(1) = (  1.000000  0.000000  0.000000 )  
               b(2) = (  0.000000  1.000000  0.000000 )  
               b(3) = (  0.000000  0.000000  1.000000 )  


     PseudoPot. # 1 for Cu read from file:
     /Users/vittoriodibona/Desktop/Tutorial_LAMMPS/Esame/CopperQE/pseudo/Cu.pbe-dn-kjpaw_psl.1.0.0.UPF
     MD5 check sum: cfffd1f38ee05704b3e17f46f1730a6f
     Pseudo is Projector augmented-wave + core cor, Zval = 11.0
     Generated using &quot;atomic&quot; code by A. Dal Corso  v.6.3
     Shape of augmentation charge: PSQ
     Using radial grid of 1199 points,  6 beta functions with: 
                l(1) =   0
                l(2) =   0
                l(3) =   1
                l(4) =   1
                l(5) =   2
                l(6) =   2
     Q(r) pseudized with 0 coefficients 


     atomic species   valence    mass     pseudopotential
        Cu            11.00    63.54600     Cu( 1.00)

     48 Sym. Ops., with inversion, found



   Cartesian axes

     site n.     atom                  positions (alat units)
         1           Cu  tau(   1) = (   0.0000000   0.0000000   0.0000000  )
         2           Cu  tau(   2) = (   0.5000000   0.5000000   0.0000000  )
         3           Cu  tau(   3) = (   0.5000000   0.0000000   0.5000000  )
         4           Cu  tau(   4) = (   0.0000000   0.5000000   0.5000000  )

     number of k points=     4  Marzari-Vanderbilt smearing, width (Ry)=  0.0200
                       cart. coord. in units 2pi/alat
        k(    1) = (   0.1250000   0.1250000   0.1250000), wk =   0.2500000
        k(    2) = (   0.1250000   0.1250000   0.3750000), wk =   0.7500000
        k(    3) = (   0.1250000   0.3750000   0.3750000), wk =   0.7500000
        k(    4) = (   0.3750000   0.3750000   0.3750000), wk =   0.2500000

     Dense  grid:   121409 G-vectors     FFT dimensions: (  64,  64,  64)

     Smooth grid:    30839 G-vectors     FFT dimensions: (  40,  40,  40)

     Estimated max dynamical RAM per process >     115.27 MB

     Estimated total dynamical RAM >     461.06 MB

     Initial potential from superposition of free atoms

     starting charge      43.9991, renormalised to      44.0000
     Starting wfcs are   36 randomized atomic wfcs
     Checking if some PAW data can be deallocated... 

     total cpu time spent up to now is       32.6 secs

     Self-consistent Calculation

     iteration #  1     ecut=    80.00 Ry     beta= 0.70
     Davidson diagonalization with overlap
     ethr =  1.00E-02,  avg # of iterations =  2.5

     Threshold (ethr) on eigenvalues was too large:
     Diagonalizing with lowered threshold

     Davidson diagonalization with overlap
     ethr =  3.94E-04,  avg # of iterations =  2.8

     total cpu time spent up to now is      153.0 secs

     total energy              =    -852.23119176 Ry
     estimated scf accuracy    <       0.23669503 Ry

     iteration #  2     ecut=    80.00 Ry     beta= 0.70
     Davidson diagonalization with overlap
     ethr =  5.38E-04,  avg # of iterations =  3.0

     total cpu time spent up to now is      234.8 secs

     total energy              =    -852.24785970 Ry
     estimated scf accuracy    <       0.80743534 Ry

     iteration #  3     ecut=    80.00 Ry     beta= 0.70
     Davidson diagonalization with overlap
     ethr =  5.38E-04,  avg # of iterations =  2.0

     total cpu time spent up to now is      307.6 secs

     total energy              =    -852.36933617 Ry
     estimated scf accuracy    <       0.00154790 Ry

     iteration #  4     ecut=    80.00 Ry     beta= 0.70
     Davidson diagonalization with overlap
     ethr =  3.52E-06,  avg # of iterations =  5.8

     total cpu time spent up to now is      418.5 secs

     total energy              =    -852.37086497 Ry
     estimated scf accuracy    <       0.00152066 Ry

     iteration #  5     ecut=    80.00 Ry     beta= 0.70
     Davidson diagonalization with overlap
     ethr =  3.46E-06,  avg # of iterations =  1.0

     total cpu time spent up to now is      479.0 secs

     total energy              =    -852.37055401 Ry
     estimated scf accuracy    <       0.00093403 Ry

     iteration #  6     ecut=    80.00 Ry     beta= 0.70
     Davidson diagonalization with overlap
     ethr =  2.12E-06,  avg # of iterations =  2.0

     total cpu time spent up to now is      549.3 secs

     total energy              =    -852.37071860 Ry
     estimated scf accuracy    <       0.00000360 Ry

     iteration #  7     ecut=    80.00 Ry     beta= 0.70
     Davidson diagonalization with overlap
     ethr =  8.19E-09,  avg # of iterations =  4.0

     total cpu time spent up to now is      636.8 secs

     total energy              =    -852.37072025 Ry
     estimated scf accuracy    <       0.00000172 Ry

     iteration #  8     ecut=    80.00 Ry     beta= 0.70
     Davidson diagonalization with overlap
     ethr =  3.91E-09,  avg # of iterations =  1.0

     total cpu time spent up to now is      693.9 secs

     total energy              =    -852.37072005 Ry
     estimated scf accuracy    <       0.00000071 Ry

     iteration #  9     ecut=    80.00 Ry     beta= 0.70
     Davidson diagonalization with overlap
     ethr =  1.60E-09,  avg # of iterations =  2.0

     total cpu time spent up to now is      765.1 secs

     End of self-consistent calculation

          k = 0.1250 0.1250 0.1250 (  3851 PWs)   bands (ev):

     3.8688   8.0143   8.0143   8.0143   8.4655   8.4655   8.4655   9.6231
     9.8305   9.8305  10.5430  10.5430  10.6446  10.6446  10.6446  10.9274
    10.9274  10.9274  11.2349  11.2349  11.2349  14.0392  14.0392  14.0392
    21.5003  21.5003

          k = 0.1250 0.1250 0.3750 (  3841 PWs)   bands (ev):

     5.2878   7.3992   8.5489   8.5490   8.8091   8.8191   8.8191   9.2993
     9.6227   9.6227   9.9160   9.9482  10.0634  10.4498  10.5017  10.5971
    10.5971  10.7762  11.0719  11.1760  11.1760  11.3361  16.0758  16.0758
    19.1246  19.1246

          k = 0.1250 0.3750 0.3750 (  3845 PWs)   bands (ev):

     6.5045   8.0836   8.0836   8.5402   9.0581   9.1305   9.1305   9.3312
     9.4531   9.4531   9.5732   9.7791  10.0210  10.2848  10.2906  10.2906
    10.5143  10.9156  10.9156  10.9629  11.2349  12.6113  12.6113  14.8745
    18.0016  20.7514

          k = 0.3750 0.3750 0.3750 (  3827 PWs)   bands (ev):

     7.1685   7.8962   7.8962   7.8962   9.4955   9.4955   9.4955   9.7713
     9.7713   9.8909   9.8909   9.8910  10.0652  10.0653  10.0653  10.1112
    10.9859  10.9859  11.1627  11.1627  11.1627  12.8627  12.8627  12.8627
    17.1954  17.1954

     the Fermi energy is    12.7423 ev

!    total energy              =    -852.37072017 Ry
     total all-electron energy =    -13239.889785 Ry
     estimated scf accuracy    <          8.5E-10 Ry
     smearing contrib. (-TS)   =      -0.00439983 Ry
     internal energy E=F+TS    =    -852.36632034 Ry

     The total energy is F=E-TS. E is the sum of the following terms:
     one-electron contribution =    -111.46217897 Ry
     hartree contribution      =     122.30039754 Ry
     xc contribution           =    -178.53055537 Ry
     ewald contribution        =    -325.28617016 Ry
     one-center paw contrib.   =    -359.38781338 Ry

     convergence has been achieved in   9 iterations

     Forces acting on atoms (cartesian axes, Ry/au):

     atom    1 type  1   force =     0.00000000    0.00000000    0.00000000
     atom    2 type  1   force =     0.00000000    0.00000000    0.00000000
     atom    3 type  1   force =     0.00000000    0.00000000    0.00000000
     atom    4 type  1   force =     0.00000000    0.00000000    0.00000000
     The non-local contrib.  to forces
     atom    1 type  1   force =     0.00000000    0.00000000    0.00000000
     atom    2 type  1   force =     0.00000000    0.00000000    0.00000000
     atom    3 type  1   force =     0.00000000    0.00000000    0.00000000
     atom    4 type  1   force =     0.00000000    0.00000000    0.00000000
     The ionic contribution  to forces
     atom    1 type  1   force =    -0.00000000   -0.00000000   -0.00000000
     atom    2 type  1   force =     0.00000000    0.00000000   -0.00000000
     atom    3 type  1   force =     0.00000000   -0.00000000    0.00000000
     atom    4 type  1   force =    -0.00000000    0.00000000    0.00000000
     The local contribution  to forces
     atom    1 type  1   force =     0.00000000   -0.00000000    0.00000000
     atom    2 type  1   force =     0.00000000    0.00000000    0.00000000
     atom    3 type  1   force =     0.00000000   -0.00000000    0.00000000
     atom    4 type  1   force =     0.00000000    0.00000000    0.00000000
     The core correction contribution to forces
     atom    1 type  1   force =     0.00000000    0.00000000    0.00000000
     atom    2 type  1   force =     0.00000000    0.00000000    0.00000000
     atom    3 type  1   force =     0.00000000   -0.00000000    0.00000000
     atom    4 type  1   force =    -0.00000000    0.00000000    0.00000000
     The Hubbard contrib.    to forces
     atom    1 type  1   force =     0.00000000    0.00000000    0.00000000
     atom    2 type  1   force =     0.00000000    0.00000000    0.00000000
     atom    3 type  1   force =     0.00000000    0.00000000    0.00000000
     atom    4 type  1   force =     0.00000000    0.00000000    0.00000000
     The SCF correction term to forces
     atom    1 type  1   force =    -0.00000000    0.00000000    0.00000000
     atom    2 type  1   force =    -0.00000000   -0.00000000   -0.00000000
     atom    3 type  1   force =    -0.00000000   -0.00000000    0.00000000
     atom    4 type  1   force =    -0.00000000   -0.00000000   -0.00000000

     Total force =     0.000000     Total SCF correction =     0.000000


     Computing stress (Cartesian axis) and pressure

          total   stress  (Ry/bohr**3)                   (kbar)     P=       40.11
   0.00027265   0.00000000   0.00000000           40.11        0.00        0.00
   0.00000000   0.00027265   0.00000000            0.00       40.11        0.00
   0.00000000   0.00000000   0.00027265            0.00        0.00       40.11


     Writing all to output data dir /Users/vittoriodibona/Desktop/Tutorial_LAMMPS/Esame/CopperQE/tmp/Cu_k4.save/

     init_run     :     57.09s CPU     32.11s WALL (       1 calls)
     electrons    :   1399.47s CPU    732.57s WALL (       1 calls)
     forces       :    183.64s CPU     94.94s WALL (       1 calls)
     stress       :     11.53s CPU      7.04s WALL (       1 calls)

     Called by init_run:
     wfcinit      :     18.65s CPU     10.99s WALL (       1 calls)
     potinit      :      0.23s CPU      0.28s WALL (       1 calls)
     hinit0       :      0.52s CPU      0.41s WALL (       1 calls)

     Called by electrons:
     c_bands      :    845.59s CPU    444.16s WALL (      10 calls)
     sum_band     :     82.68s CPU     45.44s WALL (      10 calls)
     v_of_rho     :      0.52s CPU      0.43s WALL (      10 calls)
     newd         :    505.54s CPU    260.37s WALL (      10 calls)
     PAW_pot      :      1.91s CPU      2.16s WALL (      10 calls)
     mix_rho      :      0.16s CPU      0.09s WALL (      10 calls)

     Called by c_bands:
     init_us_2    :      0.14s CPU      0.08s WALL (      92 calls)
     init_us_2:cp :      0.14s CPU      0.08s WALL (      92 calls)
     cegterg      :    840.20s CPU    441.24s WALL (      40 calls)

     Called by *egterg:
     cdiaghg      :     43.38s CPU     19.80s WALL (     140 calls)
     h_psi        :    309.67s CPU    162.53s WALL (     148 calls)
     s_psi        :     31.08s CPU     16.44s WALL (     148 calls)
     g_psi        :      0.03s CPU      0.03s WALL (     104 calls)

     Called by h_psi:
     h_psi:calbec :    224.91s CPU    123.50s WALL (     148 calls)
     vloc_psi     :     55.22s CPU     23.04s WALL (     148 calls)
     add_vuspsi   :     29.51s CPU     15.97s WALL (     148 calls)

     General routines
     calbec       :    324.28s CPU    176.93s WALL (     208 calls)
     fft          :      0.60s CPU      0.46s WALL (     154 calls)
     ffts         :      0.38s CPU      0.23s WALL (      20 calls)
     fftw         :     63.39s CPU     27.53s WALL (    6698 calls)
     interpolate  :      0.04s CPU      0.06s WALL (      10 calls)

     Parallel routines

     PWSCF        :  27m32.75s CPU  14m27.30s WALL


   This run was terminated on:  22: 6:11  22Jan2026            

=------------------------------------------------------------------------------=
   JOB DONE.
=------------------------------------------------------------------------------=
