
     Program POST-PROC v.7.2 starts on 29Jan2026 at  0:14:47 

     This program is part of the open-source Quantum ESPRESSO suite
     for quantum simulation of materials; please cite
         "P. Giannozzi et al., J. Phys.:Condens. Matter 21 395502 (2009);
         "P. Giannozzi et al., J. Phys.:Condens. Matter 29 465901 (2017);
         "P. Giannozzi et al., J. Chem. Phys. 152 154105 (2020);
          URL http://www.quantum-espresso.org", 
     in publications or presentations arising from this work. More details at
     http://www.quantum-espresso.org/quote

     Parallel version (MPI), running on     1 processors

     MPI processes distributed on     1 nodes
     0 MiB available memory on the printing compute node when the environment starts

     Reading header from file  charge_tmp.dat
     Reading data from file  charge_tmp.dat

     Writing data to be plotted to file charge_2d.dat
     Plot Type: 3D                     Output format: Gaussian cube

     POST-PROC    :      1.16s CPU      0.16s WALL


   This run was terminated on:   0:14:47  29Jan2026            

=------------------------------------------------------------------------------=
   JOB DONE.
=------------------------------------------------------------------------------=
