
     Program PWSCF v.7.2 starts on 24Jan2026 at  2:47: 8 

     This program is part of the open-source Quantum ESPRESSO suite
     for quantum simulation of materials; please cite
         "P. Giannozzi et al., J. Phys.:Condens. Matter 21 395502 (2009);
         "P. Giannozzi et al., J. Phys.:Condens. Matter 29 465901 (2017);
         "P. Giannozzi et al., J. Chem. Phys. 152 154105 (2020);
          URL http://www.quantum-espresso.org", 
     in publications or presentations arising from this work. More details at
     http://www.quantum-espresso.org/quote

     Parallel version (MPI), running on     4 processors

     MPI processes distributed on     1 nodes
     0 MiB available memory on the printing compute node when the environment starts

     Reading input from /Users/vittoriodibona/Desktop/Tutorial_LAMMPS/Esame/CopperQE/2_eos/Cu_a_3.697.in

     Current dimensions of program PWSCF are:
     Max number of different atomic species (ntypx) = 10
     Max number of k-points (npk) =  40000
     Max angular momentum in pseudopotentials (lmaxx) =  4
     file Cu.pbe-dn-kjpaw_psl.1.0.0.UPF: wavefunction(s)  4S 3D renormalized
     Found identity + ( -0.5000 -0.5000  0.0000) symmetry
     This is a supercell, fractional translations are disabled

     R & G space division:  proc/nbgrp/npool/nimage =       4
     Subspace diagonalization in iterative solution of the eigenvalue problem:
     a serial algorithm will be used


     Parallelization info
     --------------------
     sticks:   dense  smooth     PW     G-vecs:    dense   smooth      PW
     Min         780     309     89                32547     8245    1283
     Max         782     310     90                32550     8248    1286
     Sum        3125    1237    357               130195    32987    5137

     Using Slab Decomposition



     bravais-lattice index     =            1
     lattice parameter (alat)  =       6.9857  a.u.
     unit-cell volume          =     340.9003 (a.u.)^3
     number of atoms/cell      =            4
     number of atomic types    =            1
     number of electrons       =        44.00
     number of Kohn-Sham states=           26
     kinetic-energy cutoff     =      80.0000  Ry
     charge density cutoff     =     800.0000  Ry
     scf convergence threshold =      1.0E-08
     mixing beta               =       0.7000
     number of iterations used =            8  plain     mixing
     Exchange-correlation= SLA  PW   PBX  PBC
                           (   1   4   3   4   0   0   0)

     celldm(1)=   6.985687  celldm(2)=   0.000000  celldm(3)=   0.000000
     celldm(4)=   0.000000  celldm(5)=   0.000000  celldm(6)=   0.000000

     crystal axes: (cart. coord. in units of alat)
               a(1) = (   1.000000   0.000000   0.000000 )  
               a(2) = (   0.000000   1.000000   0.000000 )  
               a(3) = (   0.000000   0.000000   1.000000 )  

     reciprocal axes: (cart. coord. in units 2 pi/alat)
               b(1) = (  1.000000  0.000000  0.000000 )  
               b(2) = (  0.000000  1.000000  0.000000 )  
               b(3) = (  0.000000  0.000000  1.000000 )  


     PseudoPot. # 1 for Cu read from file:
     /Users/vittoriodibona/Desktop/Tutorial_LAMMPS/Esame/CopperQE/pseudo/Cu.pbe-dn-kjpaw_psl.1.0.0.UPF
     MD5 check sum: cfffd1f38ee05704b3e17f46f1730a6f
     Pseudo is Projector augmented-wave + core cor, Zval = 11.0
     Generated using &quot;atomic&quot; code by A. Dal Corso  v.6.3
     Shape of augmentation charge: PSQ
     Using radial grid of 1199 points,  6 beta functions with: 
                l(1) =   0
                l(2) =   0
                l(3) =   1
                l(4) =   1
                l(5) =   2
                l(6) =   2
     Q(r) pseudized with 0 coefficients 


     atomic species   valence    mass     pseudopotential
        Cu            11.00    63.54600     Cu( 1.00)

     48 Sym. Ops., with inversion, found



   Cartesian axes

     site n.     atom                  positions (alat units)
         1           Cu  tau(   1) = (   0.0000000   0.0000000   0.0000000  )
         2           Cu  tau(   2) = (   0.5000000   0.5000000   0.0000000  )
         3           Cu  tau(   3) = (   0.5000000   0.0000000   0.5000000  )
         4           Cu  tau(   4) = (   0.0000000   0.5000000   0.5000000  )

     number of k points=    20  Marzari-Vanderbilt smearing, width (Ry)=  0.0100
                       cart. coord. in units 2pi/alat
        k(    1) = (   0.0625000   0.0625000   0.0625000), wk =   0.0312500
        k(    2) = (   0.0625000   0.0625000   0.1875000), wk =   0.0937500
        k(    3) = (   0.0625000   0.0625000   0.3125000), wk =   0.0937500
        k(    4) = (   0.0625000   0.0625000   0.4375000), wk =   0.0937500
        k(    5) = (   0.0625000   0.1875000   0.1875000), wk =   0.0937500
        k(    6) = (   0.0625000   0.1875000   0.3125000), wk =   0.1875000
        k(    7) = (   0.0625000   0.1875000   0.4375000), wk =   0.1875000
        k(    8) = (   0.0625000   0.3125000   0.3125000), wk =   0.0937500
        k(    9) = (   0.0625000   0.3125000   0.4375000), wk =   0.1875000
        k(   10) = (   0.0625000   0.4375000   0.4375000), wk =   0.0937500
        k(   11) = (   0.1875000   0.1875000   0.1875000), wk =   0.0312500
        k(   12) = (   0.1875000   0.1875000   0.3125000), wk =   0.0937500
        k(   13) = (   0.1875000   0.1875000   0.4375000), wk =   0.0937500
        k(   14) = (   0.1875000   0.3125000   0.3125000), wk =   0.0937500
        k(   15) = (   0.1875000   0.3125000   0.4375000), wk =   0.1875000
        k(   16) = (   0.1875000   0.4375000   0.4375000), wk =   0.0937500
        k(   17) = (   0.3125000   0.3125000   0.3125000), wk =   0.0312500
        k(   18) = (   0.3125000   0.3125000   0.4375000), wk =   0.0937500
        k(   19) = (   0.3125000   0.4375000   0.4375000), wk =   0.0937500
        k(   20) = (   0.4375000   0.4375000   0.4375000), wk =   0.0312500

     Dense  grid:   130195 G-vectors     FFT dimensions: (  64,  64,  64)

     Smooth grid:    32987 G-vectors     FFT dimensions: (  40,  40,  40)

     Estimated max dynamical RAM per process >     129.65 MB

     Estimated total dynamical RAM >     518.58 MB

     Initial potential from superposition of free atoms

     starting charge      43.9991, renormalised to      44.0000
     Starting wfcs are   36 randomized atomic wfcs
     Checking if some PAW data can be deallocated... 

     total cpu time spent up to now is      103.3 secs

     Self-consistent Calculation

     iteration #  1     ecut=    80.00 Ry     beta= 0.70
     Davidson diagonalization with overlap
     ethr =  1.00E-02,  avg # of iterations =  2.2

     Threshold (ethr) on eigenvalues was too large:
     Diagonalizing with lowered threshold

     Davidson diagonalization with overlap
     ethr =  3.10E-04,  avg # of iterations =  3.3

     total cpu time spent up to now is      623.0 secs

     total energy              =    -852.26813164 Ry
     estimated scf accuracy    <       0.19689798 Ry

     iteration #  2     ecut=    80.00 Ry     beta= 0.70
     Davidson diagonalization with overlap
     ethr =  4.47E-04,  avg # of iterations =  3.0

     total cpu time spent up to now is      933.6 secs

     total energy              =    -852.27382045 Ry
     estimated scf accuracy    <       0.71496844 Ry

     iteration #  3     ecut=    80.00 Ry     beta= 0.70
     Davidson diagonalization with overlap
     ethr =  4.47E-04,  avg # of iterations =  2.0

     total cpu time spent up to now is     1219.4 secs

     total energy              =    -852.38323076 Ry
     estimated scf accuracy    <       0.00094001 Ry

     iteration #  4     ecut=    80.00 Ry     beta= 0.70
     Davidson diagonalization with overlap
     ethr =  2.14E-06,  avg # of iterations =  5.5

     total cpu time spent up to now is     1694.7 secs

     total energy              =    -852.38417760 Ry
     estimated scf accuracy    <       0.00122089 Ry

     iteration #  5     ecut=    80.00 Ry     beta= 0.70
     Davidson diagonalization with overlap
     ethr =  2.14E-06,  avg # of iterations =  2.0

     total cpu time spent up to now is     1967.2 secs

     total energy              =    -852.38439053 Ry
     estimated scf accuracy    <       0.00000512 Ry

     iteration #  6     ecut=    80.00 Ry     beta= 0.70
     Davidson diagonalization with overlap
     ethr =  1.16E-08,  avg # of iterations =  4.1

     total cpu time spent up to now is     2329.7 secs

     total energy              =    -852.38438875 Ry
     estimated scf accuracy    <       0.00001443 Ry

     iteration #  7     ecut=    80.00 Ry     beta= 0.70
     Davidson diagonalization with overlap
     ethr =  1.16E-08,  avg # of iterations =  2.0

     total cpu time spent up to now is     2614.0 secs

     End of self-consistent calculation

          k = 0.0625 0.0625 0.0625 (  4088 PWs)   bands (ev):

     2.7729   7.0750   7.0750   7.0750   7.4952   7.4952   7.4952   8.7015
     8.7532   8.7532   9.4678   9.4678   9.9389   9.9389   9.9389   9.9648
     9.9648   9.9648  10.1018  10.1018  10.1018  12.9693  12.9693  12.9693
    18.6223  18.6223

          k = 0.0625 0.0625 0.1875 (  4103 PWs)   bands (ev):

     3.1305   7.0362   7.2312   7.2312   7.5838   7.5898   7.5898   8.6119
     8.8247   8.8274   9.3842   9.5100   9.5178   9.5178   9.7786   9.8341
     9.8341   9.8513  10.0220  10.0936  10.0936  11.4366  13.7111  13.7111
    18.8041  18.8041

          k = 0.0625 0.0625 0.3125 (  4110 PWs)   bands (ev):

     3.8270   6.7509   7.4884   7.4884   7.7493   7.7805   7.7805   8.4367
     8.9588   8.9649   8.9649   8.9719   9.2600   9.3654   9.5882   9.6444
     9.6444   9.6634   9.9168  10.0906  10.0906  10.1668  14.8419  14.8419
    19.1814  19.1814

          k = 0.0625 0.0625 0.4375 (  4116 PWs)   bands (ev):

     4.8084   5.9175   7.7166   7.7166   7.9687   8.0650   8.0650   8.2101
     8.4693   8.4693   8.9912   9.0030   9.1763   9.3124   9.4193   9.4691
     9.4691   9.6136   9.6912   9.8049  10.0897  10.0897  16.1838  16.1838
    17.7184  17.7184

          k = 0.0625 0.1875 0.1875 (  4104 PWs)   bands (ev):

     3.4811   7.2103   7.2103   7.3687   7.6685   7.6710   7.6710   8.5665
     8.8603   8.8612   9.2797   9.2834   9.2834   9.3728   9.5213   9.7189
     9.7741   9.7741  10.0108  10.0108  10.0313  12.1236  12.1236  14.3269
    18.9302  19.1579

          k = 0.0625 0.1875 0.3125 (  4113 PWs)   bands (ev):

     4.1618   6.9615   7.5017   7.5987   7.8164   7.8227   7.8449   8.4320
     8.7630   8.8764   8.9040   8.9378   8.9781   9.3089   9.5621   9.5950
     9.6232   9.6333   9.8828   9.9814   9.9873  10.7679  13.0696  15.3332
    17.1857  19.4483

          k = 0.0625 0.1875 0.4375 (  4121 PWs)   bands (ev):

     5.1146   6.1783   7.7888   7.8427   7.9683   8.0220   8.0667   8.2370
     8.3561   8.4795   8.7794   8.8522   9.1498   9.3632   9.4034   9.4259
     9.4542   9.6657   9.8047   9.9688   9.9697  10.0819  14.1882  15.4866
    16.7089  18.1495

          k = 0.0625 0.3125 0.3125 (  4136 PWs)   bands (ev):

     4.8058   7.3153   7.3153   7.7362   7.9222   7.9702   7.9702   8.3844
     8.5525   8.5525   8.6939   8.8543   9.0294   9.2812   9.4293   9.4989
     9.4989   9.8095   9.8095   9.8156   9.8725  11.5214  11.5214  15.1396
    16.3664  19.9434

          k = 0.0625 0.3125 0.4375 (  4124 PWs)   bands (ev):

     5.6889   6.6393   7.6604   7.8007   8.0630   8.1259   8.1494   8.2744
     8.3088   8.4648   8.5802   8.7442   9.1285   9.2990   9.3231   9.3622
     9.3634   9.5866   9.7790   9.7995  10.1036  10.5801  12.4456  13.6353
    17.5178  18.9451

          k = 0.0625 0.4375 0.4375 (  4127 PWs)   bands (ev):

     6.4323   7.1574   7.1574   7.5552   8.2665   8.2665   8.2858   8.2926
     8.3998   8.4441   8.4441   8.6372   9.1068   9.2037   9.2037   9.2048
     9.4029   9.5688   9.5688   9.6481  10.5393  11.2424  11.2424  12.2143
    18.6531  20.0568

          k = 0.1875 0.1875 0.1875 (  4103 PWs)   bands (ev):

     3.8220   7.3476   7.3476   7.3476   7.7495   7.7495   7.7495   8.5437
     8.8696   8.8696   9.0805   9.0805   9.0805   9.4666   9.4666   9.5698
     9.5698   9.5698  10.0490  10.0490  10.0490  12.6246  12.6246  12.6246
    19.5072  19.5072

          k = 0.1875 0.1875 0.3125 (  4117 PWs)   bands (ev):

     4.4806   7.1079   7.5612   7.5612   7.8993   7.8993   7.9073   8.4526
     8.7493   8.7493   8.8032   8.8863   8.9153   9.3697   9.4371   9.4371
     9.4422   9.6145  10.0048  10.0048  10.0145  11.1066  13.4280  13.4280
    17.6271  17.6271

          k = 0.1875 0.1875 0.4375 (  4136 PWs)   bands (ev):

     5.3914   6.3858   7.7669   7.7669   8.0036   8.0036   8.1044   8.2962
     8.5241   8.5241   8.7135   8.8103   9.0171   9.1743   9.3265   9.3265
     9.6370   9.7760   9.9181   9.9600   9.9600  10.1480  14.3511  14.3511
    16.1691  16.1691

          k = 0.1875 0.3125 0.3125 (  4129 PWs)   bands (ev):

     5.0863   7.3141   7.3141   7.5901   8.0463   8.0824   8.0824   8.4623
     8.6189   8.6189   8.7061   8.8488   8.8977   9.2517   9.2517   9.2601
     9.4871   9.7547   9.9655   9.9767   9.9767  11.7263  11.7263  13.9231
    15.9314  18.4018

          k = 0.1875 0.3125 0.4375 (  4131 PWs)   bands (ev):

     5.8936   6.7214   7.4769   7.5642   8.1862   8.2231   8.2886   8.4173
     8.5768   8.6228   8.6588   8.7511   8.9441   9.0712   9.1568   9.1675
     9.6223   9.8527   9.9051   9.9070  10.0251  10.5814  12.5630  13.5622
    15.7437  16.8465

          k = 0.1875 0.4375 0.4375 (  4124 PWs)   bands (ev):

     6.5022   7.0574   7.0574   7.3302   8.3860   8.4786   8.4786   8.5553
     8.6079   8.6079   8.6742   8.7125   8.9181   9.0082   9.0082   9.0263
     9.6250   9.7731   9.7731   9.8083  10.4560  11.2299  11.2299  12.2168
    16.6081  17.8841

          k = 0.3125 0.3125 0.3125 (  4116 PWs)   bands (ev):

     5.5992   7.2886   7.2886   7.2886   8.2731   8.2731   8.2731   8.6175
     8.7348   8.7348   8.7348   8.8236   8.8236   9.0675   9.0675   9.0675
     9.6991   9.6991  10.0172  10.0172  10.0172  12.1225  12.1225  12.1225
    16.5833  16.5833

          k = 0.3125 0.3125 0.4375 (  4118 PWs)   bands (ev):

     6.2333   6.8311   7.2627   7.2627   8.3911   8.3911   8.5352   8.7306
     8.7624   8.7682   8.8285   8.8806   8.8806   8.9140   8.9775   8.9775
     9.8753   9.9073   9.9721   9.9721   9.9873  10.7209  12.5629  12.5629
    15.4002  15.4002

          k = 0.3125 0.4375 0.4375 (  4125 PWs)   bands (ev):

     6.6032   6.9447   6.9447   7.0825   8.5341   8.5898   8.5898   8.7141
     8.7779   8.8345   8.8345   8.8538   9.1010   9.1010   9.1334   9.1364
     9.8239   9.9405   9.9405   9.9435  10.2768  11.1888  11.1888  11.9671
    15.2576  16.1469

          k = 0.4375 0.4375 0.4375 (  4140 PWs)   bands (ev):

     6.7219   6.8767   6.8767   6.8767   8.6566   8.6566   8.6566   8.7167
     8.7167   8.7436   8.7436   8.7436   9.5851   9.5851   9.5851   9.9560
     9.9560   9.9979   9.9979   9.9979  10.0592  11.1157  11.1157  11.1157
    15.1257  15.1257

     the Fermi energy is    11.4737 ev

!    total energy              =    -852.38439106 Ry
     total all-electron energy =    -13239.903455 Ry
     estimated scf accuracy    <          4.9E-09 Ry
     smearing contrib. (-TS)   =       0.00031466 Ry
     internal energy E=F+TS    =    -852.38470572 Ry

     The total energy is F=E-TS. E is the sum of the following terms:
     one-electron contribution =    -123.55468026 Ry
     hartree contribution      =     126.58397955 Ry
     xc contribution           =    -178.39319448 Ry
     ewald contribution        =    -317.65998402 Ry
     one-center paw contrib.   =    -359.36082650 Ry

     convergence has been achieved in   7 iterations

     Forces acting on atoms (cartesian axes, Ry/au):

     atom    1 type  1   force =     0.00000000    0.00000000    0.00000000
     atom    2 type  1   force =     0.00000000    0.00000000    0.00000000
     atom    3 type  1   force =     0.00000000    0.00000000    0.00000000
     atom    4 type  1   force =     0.00000000    0.00000000    0.00000000
     The non-local contrib.  to forces
     atom    1 type  1   force =     0.00000000    0.00000000    0.00000000
     atom    2 type  1   force =     0.00000000    0.00000000    0.00000000
     atom    3 type  1   force =     0.00000000    0.00000000    0.00000000
     atom    4 type  1   force =     0.00000000    0.00000000    0.00000000
     The ionic contribution  to forces
     atom    1 type  1   force =    -0.00000000   -0.00000000   -0.00000000
     atom    2 type  1   force =     0.00000000    0.00000000   -0.00000000
     atom    3 type  1   force =     0.00000000   -0.00000000    0.00000000
     atom    4 type  1   force =    -0.00000000    0.00000000    0.00000000
     The local contribution  to forces
     atom    1 type  1   force =    -0.00000000    0.00000000   -0.00000000
     atom    2 type  1   force =     0.00000000    0.00000000   -0.00000000
     atom    3 type  1   force =     0.00000000    0.00000000    0.00000000
     atom    4 type  1   force =    -0.00000000    0.00000000    0.00000000
     The core correction contribution to forces
     atom    1 type  1   force =    -0.00000000   -0.00000000   -0.00000000
     atom    2 type  1   force =     0.00000000    0.00000000   -0.00000000
     atom    3 type  1   force =     0.00000000    0.00000000    0.00000000
     atom    4 type  1   force =     0.00000000    0.00000000    0.00000000
     The Hubbard contrib.    to forces
     atom    1 type  1   force =     0.00000000    0.00000000    0.00000000
     atom    2 type  1   force =     0.00000000    0.00000000    0.00000000
     atom    3 type  1   force =     0.00000000    0.00000000    0.00000000
     atom    4 type  1   force =     0.00000000    0.00000000    0.00000000
     The SCF correction term to forces
     atom    1 type  1   force =     0.00000000   -0.00000000   -0.00000000
     atom    2 type  1   force =    -0.00000000   -0.00000000    0.00000000
     atom    3 type  1   force =     0.00000000    0.00000000   -0.00000000
     atom    4 type  1   force =     0.00000000   -0.00000000   -0.00000000

     Total force =     0.000000     Total SCF correction =     0.000000


     Computing stress (Cartesian axis) and pressure

          total   stress  (Ry/bohr**3)                   (kbar)     P=      -69.88
  -0.00047505   0.00000000   0.00000000          -69.88        0.00        0.00
   0.00000000  -0.00047505   0.00000000            0.00      -69.88        0.00
   0.00000000   0.00000000  -0.00047505            0.00        0.00      -69.88


     Writing all to output data dir /Users/vittoriodibona/Desktop/Tutorial_LAMMPS/Esame/CopperQE/tmp/Cu_a_3.697.save/

     init_run     :    195.66s CPU    103.02s WALL (       1 calls)
     electrons    :   4721.37s CPU   2510.78s WALL (       1 calls)
     forces       :    316.68s CPU    164.27s WALL (       1 calls)
     stress       :     46.12s CPU     23.75s WALL (       1 calls)

     Called by init_run:
     wfcinit      :    138.14s CPU     73.39s WALL (       1 calls)
     potinit      :      0.23s CPU      0.24s WALL (       1 calls)
     hinit0       :      0.48s CPU      0.34s WALL (       1 calls)

     Called by electrons:
     c_bands      :   3988.92s CPU   2128.51s WALL (       8 calls)
     sum_band     :    330.27s CPU    176.24s WALL (       8 calls)
     v_of_rho     :      0.35s CPU      0.32s WALL (       8 calls)
     newd         :    456.85s CPU    232.93s WALL (       8 calls)
     PAW_pot      :      1.23s CPU      1.31s WALL (       8 calls)
     mix_rho      :      0.04s CPU      0.05s WALL (       8 calls)

     Called by c_bands:
     init_us_2    :      0.72s CPU      0.38s WALL (     380 calls)
     init_us_2:cp :      0.66s CPU      0.38s WALL (     380 calls)
     cegterg      :   3962.67s CPU   2112.27s WALL (     160 calls)

     Called by *egterg:
     cdiaghg      :    184.41s CPU     88.06s WALL (     625 calls)
     h_psi        :   1461.80s CPU    780.14s WALL (     665 calls)
     s_psi        :    142.69s CPU     74.58s WALL (     665 calls)
     g_psi        :      0.31s CPU      0.18s WALL (     485 calls)

     Called by h_psi:
     h_psi:calbec :   1098.66s CPU    603.68s WALL (     665 calls)
     vloc_psi     :    222.42s CPU    101.04s WALL (     665 calls)
     add_vuspsi   :    140.56s CPU     75.33s WALL (     665 calls)

     General routines
     calbec       :   1579.21s CPU    857.83s WALL (     925 calls)
     fft          :      0.40s CPU      0.46s WALL (     128 calls)
     ffts         :      0.17s CPU      0.19s WALL (      16 calls)
     fftw         :    243.05s CPU    111.40s WALL (   29414 calls)
     interpolate  :      0.02s CPU      0.02s WALL (       8 calls)

     Parallel routines

     PWSCF        :      1h28m CPU  46m42.38s WALL


   This run was terminated on:   3:33:50  24Jan2026            

=------------------------------------------------------------------------------=
   JOB DONE.
=------------------------------------------------------------------------------=
