
     Program PWSCF v.7.2 starts on 24Jan2026 at  1:47:54 

     This program is part of the open-source Quantum ESPRESSO suite
     for quantum simulation of materials; please cite
         "P. Giannozzi et al., J. Phys.:Condens. Matter 21 395502 (2009);
         "P. Giannozzi et al., J. Phys.:Condens. Matter 29 465901 (2017);
         "P. Giannozzi et al., J. Chem. Phys. 152 154105 (2020);
          URL http://www.quantum-espresso.org", 
     in publications or presentations arising from this work. More details at
     http://www.quantum-espresso.org/quote

     Parallel version (MPI), running on     4 processors

     MPI processes distributed on     1 nodes
     0 MiB available memory on the printing compute node when the environment starts

     Reading input from /Users/vittoriodibona/Desktop/Tutorial_LAMMPS/Esame/CopperQE/2_eos/Cu_a_3.653.in

     Current dimensions of program PWSCF are:
     Max number of different atomic species (ntypx) = 10
     Max number of k-points (npk) =  40000
     Max angular momentum in pseudopotentials (lmaxx) =  4
     file Cu.pbe-dn-kjpaw_psl.1.0.0.UPF: wavefunction(s)  4S 3D renormalized
     Found identity + ( -0.5000 -0.5000  0.0000) symmetry
     This is a supercell, fractional translations are disabled

     R & G space division:  proc/nbgrp/npool/nimage =       4
     Subspace diagonalization in iterative solution of the eigenvalue problem:
     a serial algorithm will be used


     Parallelization info
     --------------------
     sticks:   dense  smooth     PW     G-vecs:    dense   smooth      PW
     Min         760     301     87                31427     7948    1235
     Max         761     303     88                31428     7953    1238
     Sum        3041    1209    349               125711    31799    4945

     Using Slab Decomposition



     bravais-lattice index     =            1
     lattice parameter (alat)  =       6.9038  a.u.
     unit-cell volume          =     329.0519 (a.u.)^3
     number of atoms/cell      =            4
     number of atomic types    =            1
     number of electrons       =        44.00
     number of Kohn-Sham states=           26
     kinetic-energy cutoff     =      80.0000  Ry
     charge density cutoff     =     800.0000  Ry
     scf convergence threshold =      1.0E-08
     mixing beta               =       0.7000
     number of iterations used =            8  plain     mixing
     Exchange-correlation= SLA  PW   PBX  PBC
                           (   1   4   3   4   0   0   0)

     celldm(1)=   6.903799  celldm(2)=   0.000000  celldm(3)=   0.000000
     celldm(4)=   0.000000  celldm(5)=   0.000000  celldm(6)=   0.000000

     crystal axes: (cart. coord. in units of alat)
               a(1) = (   1.000000   0.000000   0.000000 )  
               a(2) = (   0.000000   1.000000   0.000000 )  
               a(3) = (   0.000000   0.000000   1.000000 )  

     reciprocal axes: (cart. coord. in units 2 pi/alat)
               b(1) = (  1.000000  0.000000  0.000000 )  
               b(2) = (  0.000000  1.000000  0.000000 )  
               b(3) = (  0.000000  0.000000  1.000000 )  


     PseudoPot. # 1 for Cu read from file:
     /Users/vittoriodibona/Desktop/Tutorial_LAMMPS/Esame/CopperQE/pseudo/Cu.pbe-dn-kjpaw_psl.1.0.0.UPF
     MD5 check sum: cfffd1f38ee05704b3e17f46f1730a6f
     Pseudo is Projector augmented-wave + core cor, Zval = 11.0
     Generated using &quot;atomic&quot; code by A. Dal Corso  v.6.3
     Shape of augmentation charge: PSQ
     Using radial grid of 1199 points,  6 beta functions with: 
                l(1) =   0
                l(2) =   0
                l(3) =   1
                l(4) =   1
                l(5) =   2
                l(6) =   2
     Q(r) pseudized with 0 coefficients 


     atomic species   valence    mass     pseudopotential
        Cu            11.00    63.54600     Cu( 1.00)

     48 Sym. Ops., with inversion, found



   Cartesian axes

     site n.     atom                  positions (alat units)
         1           Cu  tau(   1) = (   0.0000000   0.0000000   0.0000000  )
         2           Cu  tau(   2) = (   0.5000000   0.5000000   0.0000000  )
         3           Cu  tau(   3) = (   0.5000000   0.0000000   0.5000000  )
         4           Cu  tau(   4) = (   0.0000000   0.5000000   0.5000000  )

     number of k points=    20  Marzari-Vanderbilt smearing, width (Ry)=  0.0100
                       cart. coord. in units 2pi/alat
        k(    1) = (   0.0625000   0.0625000   0.0625000), wk =   0.0312500
        k(    2) = (   0.0625000   0.0625000   0.1875000), wk =   0.0937500
        k(    3) = (   0.0625000   0.0625000   0.3125000), wk =   0.0937500
        k(    4) = (   0.0625000   0.0625000   0.4375000), wk =   0.0937500
        k(    5) = (   0.0625000   0.1875000   0.1875000), wk =   0.0937500
        k(    6) = (   0.0625000   0.1875000   0.3125000), wk =   0.1875000
        k(    7) = (   0.0625000   0.1875000   0.4375000), wk =   0.1875000
        k(    8) = (   0.0625000   0.3125000   0.3125000), wk =   0.0937500
        k(    9) = (   0.0625000   0.3125000   0.4375000), wk =   0.1875000
        k(   10) = (   0.0625000   0.4375000   0.4375000), wk =   0.0937500
        k(   11) = (   0.1875000   0.1875000   0.1875000), wk =   0.0312500
        k(   12) = (   0.1875000   0.1875000   0.3125000), wk =   0.0937500
        k(   13) = (   0.1875000   0.1875000   0.4375000), wk =   0.0937500
        k(   14) = (   0.1875000   0.3125000   0.3125000), wk =   0.0937500
        k(   15) = (   0.1875000   0.3125000   0.4375000), wk =   0.1875000
        k(   16) = (   0.1875000   0.4375000   0.4375000), wk =   0.0937500
        k(   17) = (   0.3125000   0.3125000   0.3125000), wk =   0.0312500
        k(   18) = (   0.3125000   0.3125000   0.4375000), wk =   0.0937500
        k(   19) = (   0.3125000   0.4375000   0.4375000), wk =   0.0937500
        k(   20) = (   0.4375000   0.4375000   0.4375000), wk =   0.0312500

     Dense  grid:   125711 G-vectors     FFT dimensions: (  64,  64,  64)

     Smooth grid:    31799 G-vectors     FFT dimensions: (  40,  40,  40)

     Estimated max dynamical RAM per process >     125.42 MB

     Estimated total dynamical RAM >     501.68 MB

     Initial potential from superposition of free atoms

     starting charge      43.9991, renormalised to      44.0000
     Starting wfcs are   36 randomized atomic wfcs
     Checking if some PAW data can be deallocated... 

     total cpu time spent up to now is      101.6 secs

     Self-consistent Calculation

     iteration #  1     ecut=    80.00 Ry     beta= 0.70
     Davidson diagonalization with overlap
     ethr =  1.00E-02,  avg # of iterations =  2.4

     Threshold (ethr) on eigenvalues was too large:
     Diagonalizing with lowered threshold

     Davidson diagonalization with overlap
     ethr =  3.45E-04,  avg # of iterations =  3.0

     total cpu time spent up to now is      603.0 secs

     total energy              =    -852.26285105 Ry
     estimated scf accuracy    <       0.21381886 Ry

     iteration #  2     ecut=    80.00 Ry     beta= 0.70
     Davidson diagonalization with overlap
     ethr =  4.86E-04,  avg # of iterations =  3.0

     total cpu time spent up to now is      899.3 secs

     total energy              =    -852.27216125 Ry
     estimated scf accuracy    <       0.74093088 Ry

     iteration #  3     ecut=    80.00 Ry     beta= 0.70
     Davidson diagonalization with overlap
     ethr =  4.86E-04,  avg # of iterations =  2.0

     total cpu time spent up to now is     1169.3 secs

     total energy              =    -852.38712532 Ry
     estimated scf accuracy    <       0.00090746 Ry

     iteration #  4     ecut=    80.00 Ry     beta= 0.70
     Davidson diagonalization with overlap
     ethr =  2.06E-06,  avg # of iterations =  6.1

     total cpu time spent up to now is     1648.9 secs

     total energy              =    -852.38825654 Ry
     estimated scf accuracy    <       0.00122029 Ry

     iteration #  5     ecut=    80.00 Ry     beta= 0.70
     Davidson diagonalization with overlap
     ethr =  2.06E-06,  avg # of iterations =  1.1

     total cpu time spent up to now is     1841.4 secs

     total energy              =    -852.38823575 Ry
     estimated scf accuracy    <       0.00024544 Ry

     iteration #  6     ecut=    80.00 Ry     beta= 0.70
     Davidson diagonalization with overlap
     ethr =  5.58E-07,  avg # of iterations =  2.1

     total cpu time spent up to now is     2101.3 secs

     total energy              =    -852.38828260 Ry
     estimated scf accuracy    <       0.00000198 Ry

     iteration #  7     ecut=    80.00 Ry     beta= 0.70
     Davidson diagonalization with overlap
     ethr =  4.50E-09,  avg # of iterations =  3.4

     total cpu time spent up to now is     2413.0 secs

     total energy              =    -852.38828343 Ry
     estimated scf accuracy    <       0.00000002 Ry

     iteration #  8     ecut=    80.00 Ry     beta= 0.70
     Davidson diagonalization with overlap
     ethr =  4.57E-11,  avg # of iterations =  4.9

     total cpu time spent up to now is     2839.6 secs

     total energy              =    -852.38828344 Ry
     estimated scf accuracy    <       0.00000024 Ry

     iteration #  9     ecut=    80.00 Ry     beta= 0.70
     Davidson diagonalization with overlap
     ethr =  4.57E-11,  avg # of iterations =  2.1

     total cpu time spent up to now is     3115.3 secs

     total energy              =    -852.38828345 Ry
     estimated scf accuracy    <       0.00000002 Ry

     iteration # 10     ecut=    80.00 Ry     beta= 0.70
     Davidson diagonalization with overlap
     ethr =  4.57E-11,  avg # of iterations =  2.1

     total cpu time spent up to now is     3375.2 secs

     End of self-consistent calculation

          k = 0.0625 0.0625 0.0625 (  3947 PWs)   bands (ev):

     3.0996   7.4657   7.4657   7.4657   7.9076   7.9076   7.9076   9.1826
     9.2373   9.2373   9.9924   9.9924  10.4897  10.4897  10.4897  10.5138
    10.5138  10.5138  10.6619  10.6619  10.6619  13.5420  13.5420  13.5420
    19.4450  19.4450

          k = 0.0625 0.0625 0.1875 (  3955 PWs)   bands (ev):

     3.4662   7.4292   7.6287   7.6287   8.0010   8.0072   8.0072   9.0875
     9.3127   9.3155   9.9038  10.0370  10.0378  10.0378  10.3154  10.3783
    10.3783  10.3969  10.5775  10.6532  10.6532  12.0012  14.3188  14.3188
    19.6242  19.6242

          k = 0.0625 0.0625 0.3125 (  3977 PWs)   bands (ev):

     4.1794   7.1461   7.8975   7.8975   8.1754   8.2078   8.2078   8.9019
     9.4539   9.4541   9.4541   9.4679   9.7719   9.8774  10.1196  10.1774
    10.1774  10.1979  10.4665  10.6500  10.6500  10.7157  15.4912  15.4912
    19.9651  19.9652

          k = 0.0625 0.0625 0.4375 (  3989 PWs)   bands (ev):

     5.1819   6.3086   8.1356   8.1356   8.4069   8.5074   8.5074   8.6621
     8.9326   8.9326   9.4873   9.4990   9.6834   9.8269   9.9400   9.9921
     9.9922  10.1437  10.2282  10.3483  10.6490  10.6490  16.8730  16.8730
    18.4515  18.4515

          k = 0.0625 0.1875 0.1875 (  3974 PWs)   bands (ev):

     3.8253   7.6103   7.6103   7.7731   8.0896   8.0927   8.0927   9.0390
     9.3500   9.3512   9.7855   9.7910   9.7910   9.8915  10.0488  10.2564
    10.3143  10.3143  10.5655  10.5655  10.5873  12.7203  12.7203  14.9588
    19.6840  19.9962

          k = 0.0625 0.1875 0.3125 (  3979 PWs)   bands (ev):

     4.5219   7.3634   7.9139   8.0148   8.2444   8.2526   8.2755   8.8964
     9.2432   9.3606   9.3957   9.4289   9.4745   9.8236  10.0903  10.1251
    10.1543  10.1670  10.4296  10.5343  10.5408  11.3425  13.6992  15.9969
    17.9138  20.2795

          k = 0.0625 0.1875 0.4375 (  3975 PWs)   bands (ev):

     5.4946   6.5752   8.2128   8.2690   8.4064   8.4629   8.5093   8.6901
     8.8150   8.9432   9.2632   9.3403   9.6555   9.8805   9.9228   9.9463
     9.9758  10.1993  10.3476  10.5211  10.5220  10.6373  14.8475  16.1676
    17.4284  18.8994

          k = 0.0625 0.3125 0.3125 (  3988 PWs)   bands (ev):

     5.1800   7.7289   7.7289   8.1639   8.3518   8.4074   8.4074   8.8454
     9.0233   9.0233   9.1685   9.3425   9.5286   9.7942   9.9499  10.0229
    10.0229  10.3521  10.3521  10.3591  10.4194  12.1225  12.1225  15.8108
    17.0800  20.7762

          k = 0.0625 0.3125 0.4375 (  3983 PWs)   bands (ev):

     6.0804   7.0459   8.0868   8.2337   8.5003   8.5719   8.5942   8.7289
     8.7656   8.9276   9.0523   9.2255   9.6327   9.8122   9.8375   9.8782
     9.8808  10.1162  10.3203  10.3421  10.6615  11.1568  13.0713  14.2850
    18.2567  19.7176

          k = 0.0625 0.4375 0.4375 (  3986 PWs)   bands (ev):

     6.8371   7.5746   7.5746   7.9812   8.7188   8.7188   8.7362   8.7473
     8.8596   8.9070   8.9070   9.1111   9.6095   9.7113   9.7113   9.7126
     9.9229  10.0981  10.0981  10.1821  11.1162  11.8414  11.8414  12.8363
    19.4211  20.8567

          k = 0.1875 0.1875 0.1875 (  3983 PWs)   bands (ev):

     4.1742   7.7542   7.7542   7.7542   8.1745   8.1745   8.1745   9.0142
     9.3600   9.3600   9.5766   9.5766   9.5766   9.9906   9.9906  10.0988
    10.0988  10.0988  10.6061  10.6061  10.6061  13.2386  13.2386  13.2386
    20.2889  20.2889

          k = 0.1875 0.1875 0.3125 (  3974 PWs)   bands (ev):

     4.8475   7.5147   7.9790   7.9790   8.3301   8.3301   8.3405   8.9172
     9.2284   9.2284   9.2873   9.3771   9.4081   9.8873   9.9580   9.9580
     9.9644  10.1470  10.5593  10.5593  10.5698  11.6905  14.0634  14.0634
    18.3783  18.3783

          k = 0.1875 0.1875 0.4375 (  3969 PWs)   bands (ev):

     5.7763   6.7861   8.1969   8.1969   8.4380   8.4380   8.5487   8.7516
     8.9903   8.9903   9.1938   9.2962   9.5153   9.6811   9.8410   9.8410
    10.1686  10.3176  10.4679  10.5120  10.5120  10.7020  14.9957  14.9957
    16.9078  16.9078

          k = 0.1875 0.3125 0.3125 (  3963 PWs)   bands (ev):

     5.4652   7.7283   7.7283   8.0128   8.4823   8.5224   8.5224   8.9261
     9.0931   9.0931   9.1819   9.3372   9.3894   9.7623   9.7623   9.7712
    10.0120  10.2946  10.5177  10.5294  10.5294  12.3271  12.3271  14.5530
    16.6706  19.1744

          k = 0.1875 0.3125 0.4375 (  3976 PWs)   bands (ev):

     6.2865   7.1267   7.8975   7.9877   8.6302   8.6694   8.7402   8.8773
     9.0459   9.0980   9.1303   9.2335   9.4380   9.5719   9.6621   9.6731
    10.1541  10.3976  10.4538  10.4557  10.5782  11.1530  13.1787  14.1829
    16.4857  17.5957

          k = 0.1875 0.4375 0.4375 (  3977 PWs)   bands (ev):

     6.9037   7.4678   7.4678   7.7465   8.8428   8.9393   8.9393   9.0199
     9.0787   9.0787   9.1512   9.1847   9.4104   9.5050   9.5051   9.5243
    10.1576  10.3138  10.3138  10.3515  11.0260  11.8193  11.8193  12.8227
    17.3575  18.6538

          k = 0.3125 0.3125 0.3125 (  3971 PWs)   bands (ev):

     5.9857   7.7020   7.7020   7.7020   8.7218   8.7218   8.7218   9.0861
     9.2122   9.2122   9.2122   9.3110   9.3110   9.5680   9.5680   9.5680
    10.2361  10.2361  10.5725  10.5725  10.5725  12.7205  12.7205  12.7206
    17.3324  17.3324

          k = 0.3125 0.3125 0.4375 (  3975 PWs)   bands (ev):

     6.6280   7.2344   7.6750   7.6750   8.8484   8.8484   8.9995   9.2046
     9.2424   9.2464   9.3161   9.3611   9.3611   9.4061   9.4724   9.4724
    10.4225  10.4514  10.5247  10.5247  10.5410  11.2870  13.1493  13.1493
    16.1476  16.1476

          k = 0.3125 0.4375 0.4375 (  3984 PWs)   bands (ev):

     7.0004   7.3476   7.3476   7.4883   9.0020   9.0615   9.0615   9.1946
     9.2625   9.3220   9.3220   9.3424   9.5877   9.5877   9.6166   9.6255
    10.3680  10.4910  10.4911  10.4945  10.8321  11.7543  11.7543  12.5336
    16.0073  16.8986

          k = 0.4375 0.4375 0.4375 (  3972 PWs)   bands (ev):

     7.1176   7.2753   7.2753   7.2753   9.1336   9.1336   9.1336   9.1979
     9.1979   9.2262   9.2262   9.2262  10.0970  10.0970  10.0970  10.5078
    10.5078  10.5479  10.5521  10.5521  10.5521  11.6454  11.6454  11.6454
    15.8775  15.8775

     the Fermi energy is    12.0576 ev

!    total energy              =    -852.38828345 Ry
     total all-electron energy =    -13239.907348 Ry
     estimated scf accuracy    <          2.5E-12 Ry
     smearing contrib. (-TS)   =       0.00037605 Ry
     internal energy E=F+TS    =    -852.38865950 Ry

     The total energy is F=E-TS. E is the sum of the following terms:
     one-electron contribution =    -117.55794007 Ry
     hartree contribution      =     124.42384861 Ry
     xc contribution           =    -178.45323926 Ry
     ewald contribution        =    -321.42784879 Ry
     one-center paw contrib.   =    -359.37347998 Ry

     convergence has been achieved in  10 iterations

     Forces acting on atoms (cartesian axes, Ry/au):

     atom    1 type  1   force =     0.00000000    0.00000000    0.00000000
     atom    2 type  1   force =     0.00000000    0.00000000    0.00000000
     atom    3 type  1   force =     0.00000000    0.00000000    0.00000000
     atom    4 type  1   force =     0.00000000    0.00000000    0.00000000
     The non-local contrib.  to forces
     atom    1 type  1   force =     0.00000000    0.00000000    0.00000000
     atom    2 type  1   force =     0.00000000    0.00000000    0.00000000
     atom    3 type  1   force =     0.00000000    0.00000000    0.00000000
     atom    4 type  1   force =     0.00000000    0.00000000    0.00000000
     The ionic contribution  to forces
     atom    1 type  1   force =    -0.00000000   -0.00000000   -0.00000000
     atom    2 type  1   force =     0.00000000    0.00000000   -0.00000000
     atom    3 type  1   force =     0.00000000   -0.00000000    0.00000000
     atom    4 type  1   force =    -0.00000000    0.00000000    0.00000000
     The local contribution  to forces
     atom    1 type  1   force =     0.00000000   -0.00000000   -0.00000000
     atom    2 type  1   force =     0.00000000    0.00000000    0.00000000
     atom    3 type  1   force =     0.00000000   -0.00000000    0.00000000
     atom    4 type  1   force =    -0.00000000    0.00000000    0.00000000
     The core correction contribution to forces
     atom    1 type  1   force =    -0.00000000   -0.00000000   -0.00000000
     atom    2 type  1   force =     0.00000000    0.00000000   -0.00000000
     atom    3 type  1   force =     0.00000000   -0.00000000    0.00000000
     atom    4 type  1   force =     0.00000000    0.00000000    0.00000000
     The Hubbard contrib.    to forces
     atom    1 type  1   force =     0.00000000    0.00000000    0.00000000
     atom    2 type  1   force =     0.00000000    0.00000000    0.00000000
     atom    3 type  1   force =     0.00000000    0.00000000    0.00000000
     atom    4 type  1   force =     0.00000000    0.00000000    0.00000000
     The SCF correction term to forces
     atom    1 type  1   force =    -0.00000000   -0.00000000    0.00000000
     atom    2 type  1   force =     0.00000000    0.00000000    0.00000000
     atom    3 type  1   force =     0.00000000   -0.00000000    0.00000000
     atom    4 type  1   force =     0.00000000   -0.00000000    0.00000000

     Total force =     0.000000     Total SCF correction =     0.000000


     Computing stress (Cartesian axis) and pressure

          total   stress  (Ry/bohr**3)                   (kbar)     P=      -28.45
  -0.00019341   0.00000000   0.00000000          -28.45        0.00        0.00
   0.00000000  -0.00019341   0.00000000            0.00      -28.45        0.00
   0.00000000   0.00000000  -0.00019341            0.00        0.00      -28.45


     Writing all to output data dir /Users/vittoriodibona/Desktop/Tutorial_LAMMPS/Esame/CopperQE/tmp/Cu_a_3.653.save/

     init_run     :    183.16s CPU    101.27s WALL (       1 calls)
     electrons    :   5882.05s CPU   3273.66s WALL (       1 calls)
     forces       :    296.21s CPU    154.35s WALL (       1 calls)
     stress       :     41.16s CPU     23.17s WALL (       1 calls)

     Called by init_run:
     wfcinit      :    126.34s CPU     71.73s WALL (       1 calls)
     potinit      :      0.22s CPU      0.28s WALL (       1 calls)
     hinit0       :      0.50s CPU      0.61s WALL (       1 calls)

     Called by electrons:
     c_bands      :   4927.95s CPU   2763.18s WALL (      11 calls)
     sum_band     :    401.18s CPU    228.31s WALL (      11 calls)
     v_of_rho     :      0.56s CPU      0.51s WALL (      11 calls)
     newd         :    605.24s CPU    307.79s WALL (      11 calls)
     PAW_pot      :      1.93s CPU      1.87s WALL (      11 calls)
     mix_rho      :      0.24s CPU      0.20s WALL (      11 calls)

     Called by c_bands:
     init_us_2    :      0.47s CPU      0.34s WALL (     500 calls)
     init_us_2:cp :      0.47s CPU      0.34s WALL (     500 calls)
     cegterg      :   4896.90s CPU   2739.73s WALL (     220 calls)

     Called by *egterg:
     cdiaghg      :    221.08s CPU    118.89s WALL (     843 calls)
     h_psi        :   1776.75s CPU    995.87s WALL (     883 calls)
     s_psi        :    181.79s CPU     97.94s WALL (     883 calls)
     g_psi        :      0.12s CPU      0.05s WALL (     643 calls)

     Called by h_psi:
     h_psi:calbec :   1339.46s CPU    768.33s WALL (     883 calls)
     vloc_psi     :    258.78s CPU    130.37s WALL (     883 calls)
     add_vuspsi   :    178.35s CPU     96.92s WALL (     883 calls)

     General routines
     calbec       :   1874.95s CPU   1061.65s WALL (    1203 calls)
     fft          :      0.55s CPU      0.49s WALL (     167 calls)
     ffts         :      0.29s CPU      0.24s WALL (      22 calls)
     fftw         :    276.56s CPU    146.17s WALL (   39398 calls)
     interpolate  :      0.03s CPU      0.04s WALL (      11 calls)

     Parallel routines

     PWSCF        :      1h46m CPU  59m13.12s WALL


   This run was terminated on:   2:47: 8  24Jan2026            

=------------------------------------------------------------------------------=
   JOB DONE.
=------------------------------------------------------------------------------=
