
     Program PWSCF v.7.2 starts on 23Jan2026 at 23:54:59 

     This program is part of the open-source Quantum ESPRESSO suite
     for quantum simulation of materials; please cite
         "P. Giannozzi et al., J. Phys.:Condens. Matter 21 395502 (2009);
         "P. Giannozzi et al., J. Phys.:Condens. Matter 29 465901 (2017);
         "P. Giannozzi et al., J. Chem. Phys. 152 154105 (2020);
          URL http://www.quantum-espresso.org", 
     in publications or presentations arising from this work. More details at
     http://www.quantum-espresso.org/quote

     Parallel version (MPI), running on     4 processors

     MPI processes distributed on     1 nodes
     0 MiB available memory on the printing compute node when the environment starts

     Reading input from /Users/vittoriodibona/Desktop/Tutorial_LAMMPS/Esame/CopperQE/2_eos/Cu_a_3.567.in

     Current dimensions of program PWSCF are:
     Max number of different atomic species (ntypx) = 10
     Max number of k-points (npk) =  40000
     Max angular momentum in pseudopotentials (lmaxx) =  4
     file Cu.pbe-dn-kjpaw_psl.1.0.0.UPF: wavefunction(s)  4S 3D renormalized
     Found identity + ( -0.5000 -0.5000  0.0000) symmetry
     This is a supercell, fractional translations are disabled

     R & G space division:  proc/nbgrp/npool/nimage =       4
     Subspace diagonalization in iterative solution of the eigenvalue problem:
     a serial algorithm will be used


     Parallelization info
     --------------------
     sticks:   dense  smooth     PW     G-vecs:    dense   smooth      PW
     Min         721     288     85                29229     7354    1173
     Max         722     289     86                29234     7357    1176
     Sum        2885    1153    341               116921    29423    4697

     Using Slab Decomposition



     bravais-lattice index     =            1
     lattice parameter (alat)  =       6.7400  a.u.
     unit-cell volume          =     306.1851 (a.u.)^3
     number of atoms/cell      =            4
     number of atomic types    =            1
     number of electrons       =        44.00
     number of Kohn-Sham states=           26
     kinetic-energy cutoff     =      80.0000  Ry
     charge density cutoff     =     800.0000  Ry
     scf convergence threshold =      1.0E-08
     mixing beta               =       0.7000
     number of iterations used =            8  plain     mixing
     Exchange-correlation= SLA  PW   PBX  PBC
                           (   1   4   3   4   0   0   0)

     celldm(1)=   6.740023  celldm(2)=   0.000000  celldm(3)=   0.000000
     celldm(4)=   0.000000  celldm(5)=   0.000000  celldm(6)=   0.000000

     crystal axes: (cart. coord. in units of alat)
               a(1) = (   1.000000   0.000000   0.000000 )  
               a(2) = (   0.000000   1.000000   0.000000 )  
               a(3) = (   0.000000   0.000000   1.000000 )  

     reciprocal axes: (cart. coord. in units 2 pi/alat)
               b(1) = (  1.000000  0.000000  0.000000 )  
               b(2) = (  0.000000  1.000000  0.000000 )  
               b(3) = (  0.000000  0.000000  1.000000 )  


     PseudoPot. # 1 for Cu read from file:
     /Users/vittoriodibona/Desktop/Tutorial_LAMMPS/Esame/CopperQE/pseudo/Cu.pbe-dn-kjpaw_psl.1.0.0.UPF
     MD5 check sum: cfffd1f38ee05704b3e17f46f1730a6f
     Pseudo is Projector augmented-wave + core cor, Zval = 11.0
     Generated using &quot;atomic&quot; code by A. Dal Corso  v.6.3
     Shape of augmentation charge: PSQ
     Using radial grid of 1199 points,  6 beta functions with: 
                l(1) =   0
                l(2) =   0
                l(3) =   1
                l(4) =   1
                l(5) =   2
                l(6) =   2
     Q(r) pseudized with 0 coefficients 


     atomic species   valence    mass     pseudopotential
        Cu            11.00    63.54600     Cu( 1.00)

     48 Sym. Ops., with inversion, found



   Cartesian axes

     site n.     atom                  positions (alat units)
         1           Cu  tau(   1) = (   0.0000000   0.0000000   0.0000000  )
         2           Cu  tau(   2) = (   0.5000000   0.5000000   0.0000000  )
         3           Cu  tau(   3) = (   0.5000000   0.0000000   0.5000000  )
         4           Cu  tau(   4) = (   0.0000000   0.5000000   0.5000000  )

     number of k points=    20  Marzari-Vanderbilt smearing, width (Ry)=  0.0100
                       cart. coord. in units 2pi/alat
        k(    1) = (   0.0625000   0.0625000   0.0625000), wk =   0.0312500
        k(    2) = (   0.0625000   0.0625000   0.1875000), wk =   0.0937500
        k(    3) = (   0.0625000   0.0625000   0.3125000), wk =   0.0937500
        k(    4) = (   0.0625000   0.0625000   0.4375000), wk =   0.0937500
        k(    5) = (   0.0625000   0.1875000   0.1875000), wk =   0.0937500
        k(    6) = (   0.0625000   0.1875000   0.3125000), wk =   0.1875000
        k(    7) = (   0.0625000   0.1875000   0.4375000), wk =   0.1875000
        k(    8) = (   0.0625000   0.3125000   0.3125000), wk =   0.0937500
        k(    9) = (   0.0625000   0.3125000   0.4375000), wk =   0.1875000
        k(   10) = (   0.0625000   0.4375000   0.4375000), wk =   0.0937500
        k(   11) = (   0.1875000   0.1875000   0.1875000), wk =   0.0312500
        k(   12) = (   0.1875000   0.1875000   0.3125000), wk =   0.0937500
        k(   13) = (   0.1875000   0.1875000   0.4375000), wk =   0.0937500
        k(   14) = (   0.1875000   0.3125000   0.3125000), wk =   0.0937500
        k(   15) = (   0.1875000   0.3125000   0.4375000), wk =   0.1875000
        k(   16) = (   0.1875000   0.4375000   0.4375000), wk =   0.0937500
        k(   17) = (   0.3125000   0.3125000   0.3125000), wk =   0.0312500
        k(   18) = (   0.3125000   0.3125000   0.4375000), wk =   0.0937500
        k(   19) = (   0.3125000   0.4375000   0.4375000), wk =   0.0937500
        k(   20) = (   0.4375000   0.4375000   0.4375000), wk =   0.0312500

     Dense  grid:   116921 G-vectors     FFT dimensions: (  64,  64,  64)

     Smooth grid:    29423 G-vectors     FFT dimensions: (  40,  40,  40)

     Estimated max dynamical RAM per process >     117.14 MB

     Estimated total dynamical RAM >     468.56 MB

     Initial potential from superposition of free atoms

     starting charge      43.9991, renormalised to      44.0000
     Starting wfcs are   36 randomized atomic wfcs
     Checking if some PAW data can be deallocated... 

     total cpu time spent up to now is       95.6 secs

     Self-consistent Calculation

     iteration #  1     ecut=    80.00 Ry     beta= 0.70
     Davidson diagonalization with overlap
     ethr =  1.00E-02,  avg # of iterations =  2.5

     Threshold (ethr) on eigenvalues was too large:
     Diagonalizing with lowered threshold

     Davidson diagonalization with overlap
     ethr =  4.13E-04,  avg # of iterations =  3.0

     total cpu time spent up to now is      572.9 secs

     total energy              =    -852.24182641 Ry
     estimated scf accuracy    <       0.24633421 Ry

     iteration #  2     ecut=    80.00 Ry     beta= 0.70
     Davidson diagonalization with overlap
     ethr =  5.60E-04,  avg # of iterations =  2.9

     total cpu time spent up to now is      860.6 secs

     total energy              =    -852.26125402 Ry
     estimated scf accuracy    <       0.77066953 Ry

     iteration #  3     ecut=    80.00 Ry     beta= 0.70
     Davidson diagonalization with overlap
     ethr =  5.60E-04,  avg # of iterations =  2.0

     total cpu time spent up to now is     1123.8 secs

     total energy              =    -852.38325655 Ry
     estimated scf accuracy    <       0.00090199 Ry

     iteration #  4     ecut=    80.00 Ry     beta= 0.70
     Davidson diagonalization with overlap
     ethr =  2.05E-06,  avg # of iterations =  6.0

     total cpu time spent up to now is     1585.3 secs

     total energy              =    -852.38424608 Ry
     estimated scf accuracy    <       0.00121054 Ry

     iteration #  5     ecut=    80.00 Ry     beta= 0.70
     Davidson diagonalization with overlap
     ethr =  2.05E-06,  avg # of iterations =  2.0

     total cpu time spent up to now is     1837.0 secs

     total energy              =    -852.38443900 Ry
     estimated scf accuracy    <       0.00000162 Ry

     iteration #  6     ecut=    80.00 Ry     beta= 0.70
     Davidson diagonalization with overlap
     ethr =  3.68E-09,  avg # of iterations =  4.7

     total cpu time spent up to now is     2210.5 secs

     total energy              =    -852.38444095 Ry
     estimated scf accuracy    <       0.00000278 Ry

     iteration #  7     ecut=    80.00 Ry     beta= 0.70
     Davidson diagonalization with overlap
     ethr =  3.68E-09,  avg # of iterations =  2.0

     total cpu time spent up to now is     2458.8 secs

     total energy              =    -852.38444131 Ry
     estimated scf accuracy    <       0.00000008 Ry

     iteration #  8     ecut=    80.00 Ry     beta= 0.70
     Davidson diagonalization with overlap
     ethr =  1.89E-10,  avg # of iterations =  2.9

     total cpu time spent up to now is     2747.7 secs

     total energy              =    -852.38444136 Ry
     estimated scf accuracy    <       0.00000022 Ry

     iteration #  9     ecut=    80.00 Ry     beta= 0.70
     Davidson diagonalization with overlap
     ethr =  1.89E-10,  avg # of iterations =  1.9

     total cpu time spent up to now is     2964.4 secs

     total energy              =    -852.38444136 Ry
     estimated scf accuracy    <       0.00000004 Ry

     iteration # 10     ecut=    80.00 Ry     beta= 0.70
     Davidson diagonalization with overlap
     ethr =  9.82E-11,  avg # of iterations =  2.1

     total cpu time spent up to now is     3220.2 secs

     End of self-consistent calculation

          k = 0.0625 0.0625 0.0625 (  3749 PWs)   bands (ev):

     3.8118   8.3003   8.3003   8.3003   8.7893   8.7893   8.7893  10.2155
    10.2770  10.2770  11.1217  11.1217  11.6769  11.6769  11.6769  11.6963
    11.6963  11.6963  11.8695  11.8695  11.8695  14.7784  14.7784  14.7784
    21.2085  21.2085

          k = 0.0625 0.0625 0.1875 (  3725 PWs)   bands (ev):

     4.1975   8.2702   8.4783   8.4783   8.8931   8.9001   8.9001  10.1083
    10.3608  10.3641  11.0217  11.1562  11.1562  11.1715  11.4706  11.5508
    11.5508  11.5724  11.7751  11.8598  11.8598  13.2197  15.6312  15.6312
    21.3788  21.3788

          k = 0.0625 0.0625 0.3125 (  3701 PWs)   bands (ev):

     4.9460   7.9956   8.7719   8.7719   9.0872   9.1229   9.1229   9.8996
    10.5051  10.5051  10.5178  10.5337  10.8729  10.9792  11.2636  11.3249
    11.3249  11.3489  11.6511  11.8561  11.8561  11.8994  16.8922  16.8922
    21.6109  21.6110

          k = 0.0625 0.0625 0.4375 (  3689 PWs)   bands (ev):

     5.9924   7.1538   9.0316   9.0316   9.3454   9.4557   9.4557   9.6306
     9.9269   9.9269  10.5535  10.5653  10.7739  10.9337  11.0603  11.1176
    11.1176  11.2850  11.3850  11.5190  11.8550  11.8550  18.3575  18.3575
    20.0272  20.0272

          k = 0.0625 0.1875 0.1875 (  3708 PWs)   bands (ev):

     4.5747   8.4666   8.4666   8.6372   8.9910   8.9950   8.9950  10.0530
    10.4021  10.4039  10.8728  10.8826  10.8826  11.0077  11.1842  11.4140
    11.4779  11.4779  11.7612  11.7612  11.7860  14.0084  14.0084  16.3230
    21.2877  21.8108

          k = 0.0625 0.1875 0.3125 (  3698 PWs)   bands (ev):

     5.3047   8.2273   8.7963   8.9045   9.1613   9.1728   9.1977   9.8925
    10.2750  10.4009  10.4519  10.4846  10.5412  10.9307  11.2272  11.2663
    11.2976  11.3161  11.6077  11.7262  11.7337  12.5823  15.0577  17.4285
    19.4769  22.0666

          k = 0.0625 0.1875 0.4375 (  3691 PWs)   bands (ev):

     6.3188   7.4327   9.1205   9.1804   9.3462   9.4073   9.4581   9.6613
     9.7998   9.9383  10.3023  10.3885  10.7427  10.9934  11.0404  11.0657
    11.0980  11.3483  11.5173  11.7114  11.7126  11.8345  16.2686  17.6331
    18.9788  20.5124

          k = 0.0625 0.3125 0.3125 (  3695 PWs)   bands (ev):

     5.9923   8.6179   8.6179   9.0796   9.2723   9.3439   9.3439   9.8343
    10.0343  10.0343  10.1876  10.3911  10.6014  10.8975  11.0698  11.1503
    11.1503  11.5211  11.5211  11.5298  11.5978  13.4198  13.4199  17.2554
    18.6184  22.5649

          k = 0.0625 0.3125 0.4375 (  3700 PWs)   bands (ev):

     6.9285   7.9239   9.0028   9.1631   9.4366   9.5275   9.5476   9.7033
     9.7455   9.9209  10.0651  10.2586  10.7167  10.9160  10.9437  10.9882
    10.9939  11.2563  11.4861  11.5110  11.8643  12.4009  14.4216  15.6858
    19.8480  21.3787

          k = 0.0625 0.4375 0.4375 (  3688 PWs)   bands (ev):

     7.7122   8.4739   8.4739   8.8971   9.6887   9.6887   9.7011   9.7224
     9.8464   9.8994   9.8994  10.1279  10.6899  10.8025  10.8025  10.8044
    11.0418  11.2374  11.2374  11.3319  12.3608  13.1341  13.1341  14.1787
    21.0734  22.5752

          k = 0.1875 0.1875 0.1875 (  3686 PWs)   bands (ev):

     4.9405   8.6245   8.6245   8.6245   9.0844   9.0844   9.0844  10.0238
    10.4135  10.4135  10.6433  10.6433  10.6433  11.1185  11.1185  11.2374
    11.2374  11.2374  11.8073  11.8073  11.8073  14.5638  14.5638  14.5638
    21.9636  21.9636

          k = 0.1875 0.1875 0.3125 (  3701 PWs)   bands (ev):

     5.6444   8.3888   8.8736   8.8736   9.2531   9.2531   9.2684   9.9140
    10.2575  10.2575  10.3275  10.4315  10.4668  11.0010  11.0788  11.0788
    11.0881  11.2934  11.7546  11.7546  11.7668  12.9503  15.4341  15.4341
    19.9938  19.9938

          k = 0.1875 0.1875 0.4375 (  3710 PWs)   bands (ev):

     6.6104   7.6505   9.1186   9.1186   9.3684   9.3684   9.5009   9.7281
     9.9912   9.9912  10.2250  10.3395  10.5860  10.7708  10.9476  10.9476
    11.3133  11.4844  11.6526  11.7015  11.7015  11.8959  16.3856  16.3856
    18.4993  18.4993

          k = 0.1875 0.3125 0.3125 (  3698 PWs)   bands (ev):

     6.2867   8.6180   8.6180   8.9188   9.4161   9.4653   9.4653   9.9213
    10.1114  10.1114  10.2038  10.3863  10.4455  10.8602  10.8602  10.8703
    11.1414  11.4576  11.7080  11.7207  11.7207  13.6234  13.6234  15.9122
    18.2629  20.8360

          k = 0.1875 0.3125 0.4375 (  3696 PWs)   bands (ev):

     7.1363   8.0003   8.8004   8.8963   9.5810   9.6254   9.7088   9.8643
    10.0532  10.1182  10.1430  10.2691  10.4993  10.6482  10.7481  10.7598
    11.2991  11.5716  11.6363  11.6381  11.7703  12.3860  14.5070  15.5228
    18.0850  19.2105

          k = 0.1875 0.4375 0.4375 (  3689 PWs)   bands (ev):

     7.7697   8.3505   8.3505   8.6404   9.8213   9.9266   9.9266  10.0172
    10.0904  10.0904  10.1751  10.1992  10.4679  10.5726  10.5726  10.5946
    11.3043  11.4786  11.4786  11.5216  12.2556  13.0915  13.0915  14.1306
    18.9733  20.3115

          k = 0.3125 0.3125 0.3125 (  3707 PWs)   bands (ev):

     6.8219   8.5891   8.5891   8.5891   9.6832   9.6832   9.6832  10.0925
    10.2381  10.2381  10.2381  10.3578  10.3578  10.6436  10.6436  10.6436
    11.3925  11.3925  11.7697  11.7697  11.7697  14.0109  14.0109  14.0109
    18.9471  18.9471

          k = 0.3125 0.3125 0.4375 (  3698 PWs)   bands (ev):

     7.4792   8.1018   8.5592   8.5592   9.8282   9.8282   9.9949  10.2190
    10.2744  10.2768  10.3631  10.3932  10.3932  10.4633  10.5360  10.5360
    11.6015  11.6238  11.7160  11.7160  11.7344  12.5081  14.4174  14.4174
    17.7587  17.7587

          k = 0.3125 0.4375 0.4375 (  3694 PWs)   bands (ev):

     7.8549   8.2127   8.2127   8.3590  10.0052  10.0729  10.0729  10.2260
    10.3030  10.3689  10.3689  10.3917  10.6331  10.6331  10.6550  10.6757
    11.5401  11.6777  11.6777  11.6820  12.0306  12.9765  12.9765  13.7602
    17.6236  18.5202

          k = 0.4375 0.4375 0.4375 (  3692 PWs)   bands (ev):

     7.9670   8.1301   8.1301   8.1301  10.1573  10.1573  10.1573  10.2309
    10.2309  10.2623  10.2623  10.2623  11.1937  11.1937  11.1937  11.6011
    11.6971  11.6971  11.7468  11.7468  11.7468  12.7959  12.7959  12.7959
    17.4985  17.4985

     the Fermi energy is    13.3109 ev

!    total energy              =    -852.38444136 Ry
     total all-electron energy =    -13239.903506 Ry
     estimated scf accuracy    <          1.8E-11 Ry
     smearing contrib. (-TS)   =       0.00055802 Ry
     internal energy E=F+TS    =    -852.38499938 Ry

     The total energy is F=E-TS. E is the sum of the following terms:
     one-electron contribution =    -105.21042188 Ry
     hartree contribution      =     120.05667435 Ry
     xc contribution           =    -178.59253053 Ry
     ewald contribution        =    -329.23824512 Ry
     one-center paw contrib.   =    -359.40047620 Ry

     convergence has been achieved in  10 iterations

     Forces acting on atoms (cartesian axes, Ry/au):

     atom    1 type  1   force =     0.00000000    0.00000000    0.00000000
     atom    2 type  1   force =     0.00000000    0.00000000    0.00000000
     atom    3 type  1   force =     0.00000000    0.00000000    0.00000000
     atom    4 type  1   force =     0.00000000    0.00000000    0.00000000
     The non-local contrib.  to forces
     atom    1 type  1   force =     0.00000000    0.00000000    0.00000000
     atom    2 type  1   force =     0.00000000    0.00000000    0.00000000
     atom    3 type  1   force =     0.00000000    0.00000000    0.00000000
     atom    4 type  1   force =     0.00000000    0.00000000    0.00000000
     The ionic contribution  to forces
     atom    1 type  1   force =    -0.00000000   -0.00000000   -0.00000000
     atom    2 type  1   force =     0.00000000    0.00000000   -0.00000000
     atom    3 type  1   force =     0.00000000   -0.00000000    0.00000000
     atom    4 type  1   force =    -0.00000000    0.00000000    0.00000000
     The local contribution  to forces
     atom    1 type  1   force =     0.00000000    0.00000000   -0.00000000
     atom    2 type  1   force =     0.00000000    0.00000000   -0.00000000
     atom    3 type  1   force =     0.00000000    0.00000000    0.00000000
     atom    4 type  1   force =     0.00000000    0.00000000    0.00000000
     The core correction contribution to forces
     atom    1 type  1   force =    -0.00000000   -0.00000000   -0.00000000
     atom    2 type  1   force =     0.00000000    0.00000000   -0.00000000
     atom    3 type  1   force =     0.00000000    0.00000000    0.00000000
     atom    4 type  1   force =    -0.00000000    0.00000000    0.00000000
     The Hubbard contrib.    to forces
     atom    1 type  1   force =     0.00000000    0.00000000    0.00000000
     atom    2 type  1   force =     0.00000000    0.00000000    0.00000000
     atom    3 type  1   force =     0.00000000    0.00000000    0.00000000
     atom    4 type  1   force =     0.00000000    0.00000000    0.00000000
     The SCF correction term to forces
     atom    1 type  1   force =     0.00000000   -0.00000000   -0.00000000
     atom    2 type  1   force =    -0.00000000   -0.00000000    0.00000000
     atom    3 type  1   force =    -0.00000000   -0.00000000    0.00000000
     atom    4 type  1   force =    -0.00000000   -0.00000000    0.00000000

     Total force =     0.000000     Total SCF correction =     0.000000


     Computing stress (Cartesian axis) and pressure

          total   stress  (Ry/bohr**3)                   (kbar)     P=       82.49
   0.00056073   0.00000000   0.00000000           82.49        0.00        0.00
   0.00000000   0.00056073   0.00000000            0.00       82.49        0.00
   0.00000000   0.00000000   0.00056073            0.00        0.00       82.49


     Writing all to output data dir /Users/vittoriodibona/Desktop/Tutorial_LAMMPS/Esame/CopperQE/tmp/Cu_a_3.567.save/

     init_run     :    182.19s CPU     95.22s WALL (       1 calls)
     electrons    :   5450.51s CPU   3124.65s WALL (       1 calls)
     forces       :    275.36s CPU    146.25s WALL (       1 calls)
     stress       :     41.33s CPU     22.21s WALL (       1 calls)

     Called by init_run:
     wfcinit      :    130.35s CPU     68.13s WALL (       1 calls)
     potinit      :      0.23s CPU      0.30s WALL (       1 calls)
     hinit0       :      0.43s CPU      0.48s WALL (       1 calls)

     Called by electrons:
     c_bands      :   4562.73s CPU   2641.54s WALL (      11 calls)
     sum_band     :    388.99s CPU    223.00s WALL (      11 calls)
     v_of_rho     :      1.00s CPU      0.55s WALL (      11 calls)
     newd         :    545.46s CPU    282.74s WALL (      11 calls)
     PAW_pot      :      2.09s CPU      2.39s WALL (      11 calls)
     mix_rho      :      0.24s CPU      0.17s WALL (      11 calls)

     Called by c_bands:
     init_us_2    :      0.52s CPU      0.39s WALL (     500 calls)
     init_us_2:cp :      0.52s CPU      0.39s WALL (     500 calls)
     cegterg      :   4535.78s CPU   2618.69s WALL (     220 calls)

     Called by *egterg:
     cdiaghg      :    203.89s CPU    117.16s WALL (     843 calls)
     h_psi        :   1653.82s CPU    958.79s WALL (     883 calls)
     s_psi        :    174.76s CPU     95.11s WALL (     883 calls)
     g_psi        :      0.13s CPU      0.09s WALL (     643 calls)

     Called by h_psi:
     h_psi:calbec :   1239.79s CPU    730.82s WALL (     883 calls)
     vloc_psi     :    240.50s CPU    131.18s WALL (     883 calls)
     add_vuspsi   :    173.24s CPU     96.61s WALL (     883 calls)

     General routines
     calbec       :   1755.06s CPU   1015.12s WALL (    1203 calls)
     fft          :      0.88s CPU      0.61s WALL (     167 calls)
     ffts         :      0.29s CPU      0.37s WALL (      22 calls)
     fftw         :    259.13s CPU    147.89s WALL (   38558 calls)
     interpolate  :      0.04s CPU      0.04s WALL (      11 calls)

     Parallel routines

     PWSCF        :      1h39m CPU  56m28.97s WALL


   This run was terminated on:   0:51:28  24Jan2026            

=------------------------------------------------------------------------------=
   JOB DONE.
=------------------------------------------------------------------------------=
