
     Program PWSCF v.7.2 starts on 23Jan2026 at 14:55:10 

     This program is part of the open-source Quantum ESPRESSO suite
     for quantum simulation of materials; please cite
         "P. Giannozzi et al., J. Phys.:Condens. Matter 21 395502 (2009);
         "P. Giannozzi et al., J. Phys.:Condens. Matter 29 465901 (2017);
         "P. Giannozzi et al., J. Chem. Phys. 152 154105 (2020);
          URL http://www.quantum-espresso.org", 
     in publications or presentations arising from this work. More details at
     http://www.quantum-espresso.org/quote

     Parallel version (MPI), running on     4 processors

     MPI processes distributed on     1 nodes
     0 MiB available memory on the printing compute node when the environment starts

     Reading input from /Users/vittoriodibona/Desktop/Tutorial_LAMMPS/Esame/CopperQE/1_convergence/smearing/Cu_deg_0.02.in

     Current dimensions of program PWSCF are:
     Max number of different atomic species (ntypx) = 10
     Max number of k-points (npk) =  40000
     Max angular momentum in pseudopotentials (lmaxx) =  4
     file Cu.pbe-dn-kjpaw_psl.1.0.0.UPF: wavefunction(s)  4S 3D renormalized
     Found identity + ( -0.5000 -0.5000  0.0000) symmetry
     This is a supercell, fractional translations are disabled

     R & G space division:  proc/nbgrp/npool/nimage =       4
     Subspace diagonalization in iterative solution of the eigenvalue problem:
     a serial algorithm will be used


     Parallelization info
     --------------------
     sticks:   dense  smooth     PW     G-vecs:    dense   smooth      PW
     Min         741     298     86                30351     7709    1200
     Max         742     302     88                30354     7710    1201
     Sum        2965    1201    349               121409    30839    4801

     Using Slab Decomposition



     bravais-lattice index     =            1
     lattice parameter (alat)  =       6.8219  a.u.
     unit-cell volume          =     317.4813 (a.u.)^3
     number of atoms/cell      =            4
     number of atomic types    =            1
     number of electrons       =        44.00
     number of Kohn-Sham states=           26
     kinetic-energy cutoff     =      80.0000  Ry
     charge density cutoff     =     800.0000  Ry
     scf convergence threshold =      1.0E-08
     mixing beta               =       0.7000
     number of iterations used =            8  plain     mixing
     Exchange-correlation= SLA  PW   PBX  PBC
                           (   1   4   3   4   0   0   0)

     celldm(1)=   6.821911  celldm(2)=   0.000000  celldm(3)=   0.000000
     celldm(4)=   0.000000  celldm(5)=   0.000000  celldm(6)=   0.000000

     crystal axes: (cart. coord. in units of alat)
               a(1) = (   1.000000   0.000000   0.000000 )  
               a(2) = (   0.000000   1.000000   0.000000 )  
               a(3) = (   0.000000   0.000000   1.000000 )  

     reciprocal axes: (cart. coord. in units 2 pi/alat)
               b(1) = (  1.000000  0.000000  0.000000 )  
               b(2) = (  0.000000  1.000000  0.000000 )  
               b(3) = (  0.000000  0.000000  1.000000 )  


     PseudoPot. # 1 for Cu read from file:
     /Users/vittoriodibona/Desktop/Tutorial_LAMMPS/Esame/CopperQE/pseudo/Cu.pbe-dn-kjpaw_psl.1.0.0.UPF
     MD5 check sum: cfffd1f38ee05704b3e17f46f1730a6f
     Pseudo is Projector augmented-wave + core cor, Zval = 11.0
     Generated using &quot;atomic&quot; code by A. Dal Corso  v.6.3
     Shape of augmentation charge: PSQ
     Using radial grid of 1199 points,  6 beta functions with: 
                l(1) =   0
                l(2) =   0
                l(3) =   1
                l(4) =   1
                l(5) =   2
                l(6) =   2
     Q(r) pseudized with 0 coefficients 


     atomic species   valence    mass     pseudopotential
        Cu            11.00    63.54600     Cu( 1.00)

     48 Sym. Ops., with inversion, found



   Cartesian axes

     site n.     atom                  positions (alat units)
         1           Cu  tau(   1) = (   0.0000000   0.0000000   0.0000000  )
         2           Cu  tau(   2) = (   0.5000000   0.5000000   0.0000000  )
         3           Cu  tau(   3) = (   0.5000000   0.0000000   0.5000000  )
         4           Cu  tau(   4) = (   0.0000000   0.5000000   0.5000000  )

     number of k points=    20  Marzari-Vanderbilt smearing, width (Ry)=  0.0200
                       cart. coord. in units 2pi/alat
        k(    1) = (   0.0625000   0.0625000   0.0625000), wk =   0.0312500
        k(    2) = (   0.0625000   0.0625000   0.1875000), wk =   0.0937500
        k(    3) = (   0.0625000   0.0625000   0.3125000), wk =   0.0937500
        k(    4) = (   0.0625000   0.0625000   0.4375000), wk =   0.0937500
        k(    5) = (   0.0625000   0.1875000   0.1875000), wk =   0.0937500
        k(    6) = (   0.0625000   0.1875000   0.3125000), wk =   0.1875000
        k(    7) = (   0.0625000   0.1875000   0.4375000), wk =   0.1875000
        k(    8) = (   0.0625000   0.3125000   0.3125000), wk =   0.0937500
        k(    9) = (   0.0625000   0.3125000   0.4375000), wk =   0.1875000
        k(   10) = (   0.0625000   0.4375000   0.4375000), wk =   0.0937500
        k(   11) = (   0.1875000   0.1875000   0.1875000), wk =   0.0312500
        k(   12) = (   0.1875000   0.1875000   0.3125000), wk =   0.0937500
        k(   13) = (   0.1875000   0.1875000   0.4375000), wk =   0.0937500
        k(   14) = (   0.1875000   0.3125000   0.3125000), wk =   0.0937500
        k(   15) = (   0.1875000   0.3125000   0.4375000), wk =   0.1875000
        k(   16) = (   0.1875000   0.4375000   0.4375000), wk =   0.0937500
        k(   17) = (   0.3125000   0.3125000   0.3125000), wk =   0.0312500
        k(   18) = (   0.3125000   0.3125000   0.4375000), wk =   0.0937500
        k(   19) = (   0.3125000   0.4375000   0.4375000), wk =   0.0937500
        k(   20) = (   0.4375000   0.4375000   0.4375000), wk =   0.0312500

     Dense  grid:   121409 G-vectors     FFT dimensions: (  64,  64,  64)

     Smooth grid:    30839 G-vectors     FFT dimensions: (  40,  40,  40)

     Estimated max dynamical RAM per process >     121.35 MB

     Estimated total dynamical RAM >     485.41 MB

     Initial potential from superposition of free atoms

     starting charge      43.9991, renormalised to      44.0000
     Starting wfcs are   36 randomized atomic wfcs
     Checking if some PAW data can be deallocated... 

     total cpu time spent up to now is       97.2 secs

     Self-consistent Calculation

     iteration #  1     ecut=    80.00 Ry     beta= 0.70
     Davidson diagonalization with overlap
     ethr =  1.00E-02,  avg # of iterations =  2.5

     Threshold (ethr) on eigenvalues was too large:
     Diagonalizing with lowered threshold

     Davidson diagonalization with overlap
     ethr =  3.84E-04,  avg # of iterations =  2.9

     total cpu time spent up to now is      580.8 secs

     total energy              =    -852.25162691 Ry
     estimated scf accuracy    <       0.23353543 Ry

     iteration #  2     ecut=    80.00 Ry     beta= 0.70
     Davidson diagonalization with overlap
     ethr =  5.31E-04,  avg # of iterations =  3.0

     total cpu time spent up to now is      866.7 secs

     total energy              =    -852.26645055 Ry
     estimated scf accuracy    <       0.77457608 Ry

     iteration #  3     ecut=    80.00 Ry     beta= 0.70
     Davidson diagonalization with overlap
     ethr =  5.31E-04,  avg # of iterations =  2.0

     total cpu time spent up to now is     1129.8 secs

     total energy              =    -852.38675356 Ry
     estimated scf accuracy    <       0.00100878 Ry

     iteration #  4     ecut=    80.00 Ry     beta= 0.70
     Davidson diagonalization with overlap
     ethr =  2.29E-06,  avg # of iterations =  5.8

     total cpu time spent up to now is     1585.5 secs

     total energy              =    -852.38810393 Ry
     estimated scf accuracy    <       0.00130980 Ry

     iteration #  5     ecut=    80.00 Ry     beta= 0.70
     Davidson diagonalization with overlap
     ethr =  2.29E-06,  avg # of iterations =  1.0

     total cpu time spent up to now is     1769.3 secs

     total energy              =    -852.38785513 Ry
     estimated scf accuracy    <       0.00071854 Ry

     iteration #  6     ecut=    80.00 Ry     beta= 0.70
     Davidson diagonalization with overlap
     ethr =  1.63E-06,  avg # of iterations =  2.0

     total cpu time spent up to now is     2019.5 secs

     total energy              =    -852.38798322 Ry
     estimated scf accuracy    <       0.00000236 Ry

     iteration #  7     ecut=    80.00 Ry     beta= 0.70
     Davidson diagonalization with overlap
     ethr =  5.37E-09,  avg # of iterations =  4.0

     total cpu time spent up to now is     2362.3 secs

     total energy              =    -852.38798471 Ry
     estimated scf accuracy    <       0.00000248 Ry

     iteration #  8     ecut=    80.00 Ry     beta= 0.70
     Davidson diagonalization with overlap
     ethr =  5.37E-09,  avg # of iterations =  2.0

     total cpu time spent up to now is     2626.2 secs

     total energy              =    -852.38798549 Ry
     estimated scf accuracy    <       0.00000063 Ry

     iteration #  9     ecut=    80.00 Ry     beta= 0.70
     Davidson diagonalization with overlap
     ethr =  1.43E-09,  avg # of iterations =  1.1

     total cpu time spent up to now is     2813.3 secs

     total energy              =    -852.38798548 Ry
     estimated scf accuracy    <       0.00000012 Ry

     iteration # 10     ecut=    80.00 Ry     beta= 0.70
     Davidson diagonalization with overlap
     ethr =  2.77E-10,  avg # of iterations =  2.0

     total cpu time spent up to now is     3055.0 secs

     End of self-consistent calculation

          k = 0.0625 0.0625 0.0625 (  3836 PWs)   bands (ev):

     3.4453   7.8729   7.8729   7.8729   8.3375   8.3375   8.3375   9.6855
     9.7436   9.7436  10.5419  10.5419  11.0671  11.0671  11.0671  11.0891
    11.0891  11.0891  11.2491  11.2492  11.2492  14.1441  14.1441  14.1441
    20.3058  20.3058

          k = 0.0625 0.0625 0.1875 (  3848 PWs)   bands (ev):

     3.8212   7.8393   8.0432   8.0432   8.4360   8.4426   8.4426   9.5846
     9.8230   9.8261  10.4478  10.5822  10.5822  10.5890  10.8776  10.9487
    10.9487  10.9687  11.1599  11.2400  11.2400  12.5944  14.9578  14.9578
    20.4811  20.4812

          k = 0.0625 0.0625 0.3125 (  3835 PWs)   bands (ev):

     4.5518   7.5601   8.3240   8.3240   8.6199   8.6539   8.6539   9.3879
     9.9659   9.9659   9.9718   9.9867  10.3078  10.4139  10.6762  10.7357
    10.7357  10.7579  11.0427  11.2365  11.2365  11.2916  16.1735  16.1735
    20.7721  20.7722

          k = 0.0625 0.0625 0.4375 (  3846 PWs)   bands (ev):

     5.5759   6.7199   8.5726   8.5726   8.8643   8.9695   8.9695   9.1340
     9.4169   9.4169  10.0064  10.0181  10.2142  10.3656  10.4851  10.5399
    10.5399  10.6990  10.7909  10.9178  11.2355  11.2355  17.5963  17.5963
    19.2199  19.2199

          k = 0.0625 0.1875 0.1875 (  3840 PWs)   bands (ev):

     4.1892   8.0279   8.0279   8.1947   8.5291   8.5326   8.5326   9.5329
     9.8623   9.8637  10.3148  10.3225  10.3225  10.4347  10.6012  10.8196
    10.8804  10.8804  11.1470  11.1470  11.1703  13.3473  13.3473  15.6230
    20.4674  20.8805

          k = 0.0625 0.1875 0.3125 (  3839 PWs)   bands (ev):

     4.9022   7.7844   8.3442   8.4488   8.6913   8.7012   8.7250   9.3817
     9.7457   9.8672   9.9100   9.9429   9.9938  10.3624  10.6435  10.6804
    10.7107  10.7260  11.0027  11.1140  11.1210  11.9457  14.3606  16.6941
    18.6764  21.1512

          k = 0.0625 0.1875 0.4375 (  3832 PWs)   bands (ev):

     5.8953   6.9925   8.6554   8.7135   8.8643   8.9232   8.9716   9.1633
     9.2947   9.4279   9.7692   9.8507  10.1847  10.4221  10.4667  10.4911
    10.5219  10.7584  10.9166  11.1000  11.1011  11.2197  15.5396  16.8819
    18.1838  19.6859

          k = 0.0625 0.3125 0.3125 (  3830 PWs)   bands (ev):

     5.5748   8.1621   8.1621   8.6103   8.8005   8.8639   8.8639   9.3272
     9.5158   9.5158   9.6648   9.8531  10.0509  10.3312  10.4949  10.5716
    10.5716  10.9208  10.9208  10.9286  10.9926  12.7538  12.7538  16.5148
    17.8295  21.6489

          k = 0.0625 0.3125 0.4375 (  3839 PWs)   bands (ev):

     6.4929   7.4733   8.5331   8.6865   8.9568   9.0376   9.0588   9.2037
     9.2430   9.4115   9.5456   9.7286  10.1604  10.3494  10.3759  10.4185
    10.4225  10.6709  10.8874  10.9107  11.2465  11.7620  13.7285  14.9672
    19.0322  20.5276

          k = 0.0625 0.4375 0.4375 (  3837 PWs)   bands (ev):

     7.2630   8.0124   8.0125   8.4272   9.1914   9.1914   9.2065   9.2224
     9.3403   9.3905   9.3905   9.6064  10.1355  10.2425  10.2425  10.2441
    10.4674  10.6525  10.6525  10.7415  11.7216  12.4703  12.4703  13.4896
    20.2266  21.6950

          k = 0.1875 0.1875 0.1875 (  3824 PWs)   bands (ev):

     4.5464   8.1786   8.1786   8.1786   8.6181   8.6181   8.6181   9.5060
     9.8729   9.8729  10.0960  10.0960  10.0960  10.5394  10.5394  10.6528
    10.6528  10.6528  11.1903  11.1903  11.1903  13.8837  13.8837  13.8837
    21.1065  21.1065

          k = 0.1875 0.1875 0.3125 (  3835 PWs)   bands (ev):

     5.2347   7.9406   8.4152   8.4152   8.7800   8.7800   8.7928   9.4028
     9.7296   9.7296   9.7938   9.8905   9.9235  10.4293  10.5035  10.5035
    10.5112  10.7047  11.1407  11.1407  11.1519  12.3036  14.7308  14.7308
    19.1660  19.1660

          k = 0.1875 0.1875 0.4375 (  3838 PWs)   bands (ev):

     6.1820   7.2069   8.6461   8.6461   8.8916   8.8916   9.0127   9.2274
     9.4778   9.4778   9.6960   9.8042  10.0365  10.2115  10.3796  10.3796
    10.7256  10.8852  11.0441  11.0905  11.0905  11.2829  15.6725  15.6725
    17.6832  17.6832

          k = 0.1875 0.3125 0.3125 (  3829 PWs)   bands (ev):

     5.8646   8.1618   8.1618   8.4544   8.9376   8.9820   8.9820   9.4109
     9.5890   9.5890   9.6796   9.8481   9.9036  10.2967  10.2967  10.3062
    10.5615  10.8604  11.0967  11.1088  11.1089  12.9580  12.9580  15.2148
    17.4464  19.9845

          k = 0.1875 0.3125 0.4375 (  3831 PWs)   bands (ev):

     6.7000   7.5521   8.3375   8.4305   9.0937   9.1355   9.2121   9.3582
     9.5365   9.5949   9.6235   9.7378   9.9548  10.0959  10.1907  10.2021
    10.7112  10.9687  11.0290  11.0308  11.1581  11.7529  13.8253  14.8352
    17.2648  18.3825

          k = 0.1875 0.4375 0.4375 (  3836 PWs)   bands (ev):

     7.3253   7.8978   7.8978   8.1820   9.3197   9.4205   9.4205   9.5058
     9.5713   9.5713   9.6499   9.6788   9.9253  10.0248  10.0248  10.0454
    10.7155  10.8805  10.8805  10.9207  11.6241  12.4383  12.4383  13.4593
    18.1445  19.4617

          k = 0.3125 0.3125 0.3125 (  3836 PWs)   bands (ev):

     6.3925   8.1343   8.1343   8.1343   9.1904   9.1904   9.1904   9.5763
     9.7118   9.7118   9.7118   9.8207   9.8207  10.0917  10.0917  10.0917
    10.7986  10.7986  11.1548  11.1548  11.1548  13.3486  13.3486  13.3486
    18.1190  18.1190

          k = 0.3125 0.3125 0.4375 (  3838 PWs)   bands (ev):

     7.0424   7.6569   8.1059   8.1059   9.3260   9.3260   9.4846   9.6991
     9.7458   9.7470   9.8259   9.8638   9.8638   9.9208   9.9903   9.9903
    10.9960  11.0217  11.1041  11.1041  11.1214  11.8811  13.7662  13.7662
    16.9323  16.9323

          k = 0.3125 0.4375 0.4375 (  3826 PWs)   bands (ev):

     7.4167   7.7691   7.7691   7.9126   9.4908   9.5543   9.5543   9.6970
     9.7692   9.8318   9.8318   9.8534  10.0970  10.0970  10.1225  10.1371
    10.9382  11.0682  11.0682  11.0721  11.4150  12.3488  12.3488  13.1300
    16.7945  17.6883

          k = 0.4375 0.4375 0.4375 (  3846 PWs)   bands (ev):

     7.5315   7.6919   7.6919   7.6919   9.6322   9.6322   9.6322   9.7010
     9.7010   9.7308   9.7308   9.7308  10.6317  10.6317  10.6317  11.0610
    11.0862  11.0862  11.1331  11.1331  11.1331  12.2043  12.2043  12.2043
    16.6669  16.6669

     the Fermi energy is    12.6818 ev

!    total energy              =    -852.38798550 Ry
     total all-electron energy =    -13239.907050 Ry
     estimated scf accuracy    <          1.7E-09 Ry
     smearing contrib. (-TS)   =       0.00066872 Ry
     internal energy E=F+TS    =    -852.38865422 Ry

     The total energy is F=E-TS. E is the sum of the following terms:
     one-electron contribution =    -111.44171456 Ry
     hartree contribution      =     122.24508586 Ry
     xc contribution           =    -178.51905893 Ry
     ewald contribution        =    -325.28617016 Ry
     one-center paw contrib.   =    -359.38679643 Ry

     convergence has been achieved in  10 iterations

     Forces acting on atoms (cartesian axes, Ry/au):

     atom    1 type  1   force =     0.00000000    0.00000000    0.00000000
     atom    2 type  1   force =     0.00000000    0.00000000    0.00000000
     atom    3 type  1   force =     0.00000000    0.00000000    0.00000000
     atom    4 type  1   force =     0.00000000    0.00000000    0.00000000
     The non-local contrib.  to forces
     atom    1 type  1   force =     0.00000000    0.00000000    0.00000000
     atom    2 type  1   force =     0.00000000    0.00000000    0.00000000
     atom    3 type  1   force =     0.00000000    0.00000000    0.00000000
     atom    4 type  1   force =     0.00000000    0.00000000    0.00000000
     The ionic contribution  to forces
     atom    1 type  1   force =    -0.00000000   -0.00000000   -0.00000000
     atom    2 type  1   force =     0.00000000    0.00000000   -0.00000000
     atom    3 type  1   force =     0.00000000   -0.00000000    0.00000000
     atom    4 type  1   force =    -0.00000000    0.00000000    0.00000000
     The local contribution  to forces
     atom    1 type  1   force =     0.00000000   -0.00000000    0.00000000
     atom    2 type  1   force =     0.00000000    0.00000000   -0.00000000
     atom    3 type  1   force =     0.00000000    0.00000000    0.00000000
     atom    4 type  1   force =    -0.00000000    0.00000000    0.00000000
     The core correction contribution to forces
     atom    1 type  1   force =     0.00000000   -0.00000000   -0.00000000
     atom    2 type  1   force =     0.00000000    0.00000000    0.00000000
     atom    3 type  1   force =     0.00000000    0.00000000    0.00000000
     atom    4 type  1   force =    -0.00000000    0.00000000    0.00000000
     The Hubbard contrib.    to forces
     atom    1 type  1   force =     0.00000000    0.00000000    0.00000000
     atom    2 type  1   force =     0.00000000    0.00000000    0.00000000
     atom    3 type  1   force =     0.00000000    0.00000000    0.00000000
     atom    4 type  1   force =     0.00000000    0.00000000    0.00000000
     The SCF correction term to forces
     atom    1 type  1   force =     0.00000000    0.00000000   -0.00000000
     atom    2 type  1   force =     0.00000000   -0.00000000   -0.00000000
     atom    3 type  1   force =    -0.00000000   -0.00000000   -0.00000000
     atom    4 type  1   force =    -0.00000000   -0.00000000   -0.00000000

     Total force =     0.000000     Total SCF correction =     0.000000


     Computing stress (Cartesian axis) and pressure

          total   stress  (Ry/bohr**3)                   (kbar)     P=       22.14
   0.00015051   0.00000000   0.00000000           22.14        0.00        0.00
   0.00000000   0.00015051   0.00000000            0.00       22.14        0.00
   0.00000000   0.00000000   0.00015051            0.00        0.00       22.14


     Writing all to output data dir /Users/vittoriodibona/Desktop/Tutorial_LAMMPS/Esame/CopperQE/tmp/Cu_deg_0.02.save/

     init_run     :    182.82s CPU     96.77s WALL (       1 calls)
     electrons    :   5570.49s CPU   2957.88s WALL (       1 calls)
     forces       :    290.03s CPU    148.94s WALL (       1 calls)
     stress       :     45.07s CPU     23.19s WALL (       1 calls)

     Called by init_run:
     wfcinit      :    131.30s CPU     69.05s WALL (       1 calls)
     potinit      :      0.23s CPU      0.29s WALL (       1 calls)
     hinit0       :      0.46s CPU      0.41s WALL (       1 calls)

     Called by electrons:
     c_bands      :   4644.08s CPU   2471.94s WALL (      11 calls)
     sum_band     :    419.14s CPU    224.70s WALL (      11 calls)
     v_of_rho     :      0.89s CPU      0.63s WALL (      11 calls)
     newd         :    553.52s CPU    284.54s WALL (      11 calls)
     PAW_pot      :      2.08s CPU      2.28s WALL (      11 calls)
     mix_rho      :      0.39s CPU      0.14s WALL (      11 calls)

     Called by c_bands:
     init_us_2    :      0.89s CPU      0.56s WALL (     500 calls)
     init_us_2:cp :      0.87s CPU      0.56s WALL (     500 calls)
     cegterg      :   4606.08s CPU   2449.34s WALL (     220 calls)

     Called by *egterg:
     cdiaghg      :    227.95s CPU    105.15s WALL (     767 calls)
     h_psi        :   1683.26s CPU    896.20s WALL (     807 calls)
     s_psi        :    169.57s CPU     89.04s WALL (     807 calls)
     g_psi        :      0.10s CPU      0.10s WALL (     567 calls)

     Called by h_psi:
     h_psi:calbec :   1227.14s CPU    685.01s WALL (     807 calls)
     vloc_psi     :    287.25s CPU    121.84s WALL (     807 calls)
     add_vuspsi   :    168.37s CPU     89.05s WALL (     807 calls)

     General routines
     calbec       :   1777.05s CPU    974.62s WALL (    1127 calls)
     fft          :      0.80s CPU      0.60s WALL (     167 calls)
     ffts         :      0.67s CPU      0.33s WALL (      22 calls)
     fftw         :    309.45s CPU    136.14s WALL (   37486 calls)
     interpolate  :      0.03s CPU      0.04s WALL (      11 calls)

     Parallel routines

     PWSCF        :      1h41m CPU  53m47.48s WALL


   This run was terminated on:  15:48:57  23Jan2026            

=------------------------------------------------------------------------------=
   JOB DONE.
=------------------------------------------------------------------------------=
