
     Program PWSCF v.7.2 starts on 23Jan2026 at 12: 6:23 

     This program is part of the open-source Quantum ESPRESSO suite
     for quantum simulation of materials; please cite
         "P. Giannozzi et al., J. Phys.:Condens. Matter 21 395502 (2009);
         "P. Giannozzi et al., J. Phys.:Condens. Matter 29 465901 (2017);
         "P. Giannozzi et al., J. Chem. Phys. 152 154105 (2020);
          URL http://www.quantum-espresso.org", 
     in publications or presentations arising from this work. More details at
     http://www.quantum-espresso.org/quote

     Parallel version (MPI), running on     4 processors

     MPI processes distributed on     1 nodes
     0 MiB available memory on the printing compute node when the environment starts

     Reading input from /Users/vittoriodibona/Desktop/Tutorial_LAMMPS/Esame/CopperQE/1_convergence/smearing/Cu_deg_0.005.in

     Current dimensions of program PWSCF are:
     Max number of different atomic species (ntypx) = 10
     Max number of k-points (npk) =  40000
     Max angular momentum in pseudopotentials (lmaxx) =  4
     file Cu.pbe-dn-kjpaw_psl.1.0.0.UPF: wavefunction(s)  4S 3D renormalized
     Found identity + ( -0.5000 -0.5000  0.0000) symmetry
     This is a supercell, fractional translations are disabled

     R & G space division:  proc/nbgrp/npool/nimage =       4
     Subspace diagonalization in iterative solution of the eigenvalue problem:
     a serial algorithm will be used


     Parallelization info
     --------------------
     sticks:   dense  smooth     PW     G-vecs:    dense   smooth      PW
     Min         741     298     86                30351     7709    1200
     Max         742     302     88                30354     7710    1201
     Sum        2965    1201    349               121409    30839    4801

     Using Slab Decomposition



     bravais-lattice index     =            1
     lattice parameter (alat)  =       6.8219  a.u.
     unit-cell volume          =     317.4813 (a.u.)^3
     number of atoms/cell      =            4
     number of atomic types    =            1
     number of electrons       =        44.00
     number of Kohn-Sham states=           26
     kinetic-energy cutoff     =      80.0000  Ry
     charge density cutoff     =     800.0000  Ry
     scf convergence threshold =      1.0E-08
     mixing beta               =       0.7000
     number of iterations used =            8  plain     mixing
     Exchange-correlation= SLA  PW   PBX  PBC
                           (   1   4   3   4   0   0   0)

     celldm(1)=   6.821911  celldm(2)=   0.000000  celldm(3)=   0.000000
     celldm(4)=   0.000000  celldm(5)=   0.000000  celldm(6)=   0.000000

     crystal axes: (cart. coord. in units of alat)
               a(1) = (   1.000000   0.000000   0.000000 )  
               a(2) = (   0.000000   1.000000   0.000000 )  
               a(3) = (   0.000000   0.000000   1.000000 )  

     reciprocal axes: (cart. coord. in units 2 pi/alat)
               b(1) = (  1.000000  0.000000  0.000000 )  
               b(2) = (  0.000000  1.000000  0.000000 )  
               b(3) = (  0.000000  0.000000  1.000000 )  


     PseudoPot. # 1 for Cu read from file:
     /Users/vittoriodibona/Desktop/Tutorial_LAMMPS/Esame/CopperQE/pseudo/Cu.pbe-dn-kjpaw_psl.1.0.0.UPF
     MD5 check sum: cfffd1f38ee05704b3e17f46f1730a6f
     Pseudo is Projector augmented-wave + core cor, Zval = 11.0
     Generated using &quot;atomic&quot; code by A. Dal Corso  v.6.3
     Shape of augmentation charge: PSQ
     Using radial grid of 1199 points,  6 beta functions with: 
                l(1) =   0
                l(2) =   0
                l(3) =   1
                l(4) =   1
                l(5) =   2
                l(6) =   2
     Q(r) pseudized with 0 coefficients 


     atomic species   valence    mass     pseudopotential
        Cu            11.00    63.54600     Cu( 1.00)

     48 Sym. Ops., with inversion, found



   Cartesian axes

     site n.     atom                  positions (alat units)
         1           Cu  tau(   1) = (   0.0000000   0.0000000   0.0000000  )
         2           Cu  tau(   2) = (   0.5000000   0.5000000   0.0000000  )
         3           Cu  tau(   3) = (   0.5000000   0.0000000   0.5000000  )
         4           Cu  tau(   4) = (   0.0000000   0.5000000   0.5000000  )

     number of k points=    20  Marzari-Vanderbilt smearing, width (Ry)=  0.0050
                       cart. coord. in units 2pi/alat
        k(    1) = (   0.0625000   0.0625000   0.0625000), wk =   0.0312500
        k(    2) = (   0.0625000   0.0625000   0.1875000), wk =   0.0937500
        k(    3) = (   0.0625000   0.0625000   0.3125000), wk =   0.0937500
        k(    4) = (   0.0625000   0.0625000   0.4375000), wk =   0.0937500
        k(    5) = (   0.0625000   0.1875000   0.1875000), wk =   0.0937500
        k(    6) = (   0.0625000   0.1875000   0.3125000), wk =   0.1875000
        k(    7) = (   0.0625000   0.1875000   0.4375000), wk =   0.1875000
        k(    8) = (   0.0625000   0.3125000   0.3125000), wk =   0.0937500
        k(    9) = (   0.0625000   0.3125000   0.4375000), wk =   0.1875000
        k(   10) = (   0.0625000   0.4375000   0.4375000), wk =   0.0937500
        k(   11) = (   0.1875000   0.1875000   0.1875000), wk =   0.0312500
        k(   12) = (   0.1875000   0.1875000   0.3125000), wk =   0.0937500
        k(   13) = (   0.1875000   0.1875000   0.4375000), wk =   0.0937500
        k(   14) = (   0.1875000   0.3125000   0.3125000), wk =   0.0937500
        k(   15) = (   0.1875000   0.3125000   0.4375000), wk =   0.1875000
        k(   16) = (   0.1875000   0.4375000   0.4375000), wk =   0.0937500
        k(   17) = (   0.3125000   0.3125000   0.3125000), wk =   0.0312500
        k(   18) = (   0.3125000   0.3125000   0.4375000), wk =   0.0937500
        k(   19) = (   0.3125000   0.4375000   0.4375000), wk =   0.0937500
        k(   20) = (   0.4375000   0.4375000   0.4375000), wk =   0.0312500

     Dense  grid:   121409 G-vectors     FFT dimensions: (  64,  64,  64)

     Smooth grid:    30839 G-vectors     FFT dimensions: (  40,  40,  40)

     Estimated max dynamical RAM per process >     121.35 MB

     Estimated total dynamical RAM >     485.41 MB

     Initial potential from superposition of free atoms

     starting charge      43.9991, renormalised to      44.0000
     Starting wfcs are   36 randomized atomic wfcs
     Checking if some PAW data can be deallocated... 

     total cpu time spent up to now is       90.4 secs

     Self-consistent Calculation

     iteration #  1     ecut=    80.00 Ry     beta= 0.70
     Davidson diagonalization with overlap
     ethr =  1.00E-02,  avg # of iterations =  2.5

     Threshold (ethr) on eigenvalues was too large:
     Diagonalizing with lowered threshold

     Davidson diagonalization with overlap
     ethr =  3.78E-04,  avg # of iterations =  3.0
     Minimization algorithm failed to find Fermi energy: reverting to bisection
     Possible cause: smearing is larger than the electronic band-gap.

     total cpu time spent up to now is      578.1 secs

     total energy              =    -852.25412838 Ry
     estimated scf accuracy    <       0.23087211 Ry

     iteration #  2     ecut=    80.00 Ry     beta= 0.70
     Davidson diagonalization with overlap
     ethr =  5.25E-04,  avg # of iterations =  3.0

     total cpu time spent up to now is      871.8 secs

     total energy              =    -852.26643200 Ry
     estimated scf accuracy    <       0.76730169 Ry

     iteration #  3     ecut=    80.00 Ry     beta= 0.70
     Davidson diagonalization with overlap
     ethr =  5.25E-04,  avg # of iterations =  2.0

     total cpu time spent up to now is     1140.3 secs

     total energy              =    -852.38748686 Ry
     estimated scf accuracy    <       0.00070852 Ry

     iteration #  4     ecut=    80.00 Ry     beta= 0.70
     Davidson diagonalization with overlap
     ethr =  1.61E-06,  avg # of iterations =  6.1
     Minimization algorithm failed to find Fermi energy: reverting to bisection
     Possible cause: smearing is larger than the electronic band-gap.

     total cpu time spent up to now is     1629.2 secs

     total energy              =    -852.38865337 Ry
     estimated scf accuracy    <       0.00113587 Ry

     iteration #  5     ecut=    80.00 Ry     beta= 0.70
     Davidson diagonalization with overlap
     ethr =  1.61E-06,  avg # of iterations =  1.1

     total cpu time spent up to now is     1818.9 secs

     total energy              =    -852.38845659 Ry
     estimated scf accuracy    <       0.00061287 Ry

     iteration #  6     ecut=    80.00 Ry     beta= 0.70
     Davidson diagonalization with overlap
     ethr =  1.39E-06,  avg # of iterations =  2.0

     total cpu time spent up to now is     2062.3 secs

     total energy              =    -852.38855425 Ry
     estimated scf accuracy    <       0.00000029 Ry

     iteration #  7     ecut=    80.00 Ry     beta= 0.70
     Davidson diagonalization with overlap
     ethr =  6.60E-10,  avg # of iterations =  5.8

     total cpu time spent up to now is     2543.4 secs

     total energy              =    -852.38855575 Ry
     estimated scf accuracy    <       0.00000023 Ry

     iteration #  8     ecut=    80.00 Ry     beta= 0.70
     Davidson diagonalization with overlap
     ethr =  5.29E-10,  avg # of iterations =  2.0

     total cpu time spent up to now is     2765.6 secs

     total energy              =    -852.38855561 Ry
     estimated scf accuracy    <       0.00000052 Ry

     iteration #  9     ecut=    80.00 Ry     beta= 0.70
     Davidson diagonalization with overlap
     ethr =  5.29E-10,  avg # of iterations =  2.0

     total cpu time spent up to now is     3021.1 secs

     total energy              =    -852.38855567 Ry
     estimated scf accuracy    <       0.00000002 Ry

     iteration # 10     ecut=    80.00 Ry     beta= 0.70
     Davidson diagonalization with overlap
     ethr =  3.63E-11,  avg # of iterations =  2.8

     total cpu time spent up to now is     3301.1 secs

     End of self-consistent calculation

          k = 0.0625 0.0625 0.0625 (  3836 PWs)   bands (ev):

     3.4451   7.8696   7.8696   7.8696   8.3336   8.3336   8.3336   9.6809
     9.7390   9.7390  10.5369  10.5369  11.0620  11.0620  11.0620  11.0842
    11.0842  11.0842  11.2439  11.2440  11.2440  14.1433  14.1433  14.1433
    20.3039  20.3039

          k = 0.0625 0.0625 0.1875 (  3848 PWs)   bands (ev):

     3.8210   7.8364   8.0398   8.0398   8.4320   8.4386   8.4386   9.5801
     9.8184   9.8214  10.4429  10.5778  10.5778  10.5840  10.8730  10.9436
    10.9436  10.9636  11.1548  11.2348  11.2348  12.5926  14.9565  14.9565
    20.4794  20.4794

          k = 0.0625 0.0625 0.3125 (  3835 PWs)   bands (ev):

     4.5515   7.5581   8.3205   8.3205   8.6159   8.6500   8.6500   9.3835
     9.9618   9.9618   9.9671   9.9820  10.3030  10.4100  10.6711  10.7307
    10.7307  10.7529  11.0375  11.2313  11.2314  11.2879  16.1719  16.1719
    20.7704  20.7704

          k = 0.0625 0.0625 0.4375 (  3846 PWs)   bands (ev):

     5.5755   6.7191   8.5690   8.5690   8.8602   8.9655   8.9655   9.1297
     9.4129   9.4129  10.0018  10.0139  10.2094  10.3608  10.4803  10.5350
    10.5350  10.6944  10.7859  10.9127  11.2303  11.2303  17.5947  17.5947
    19.2184  19.2184

          k = 0.0625 0.1875 0.1875 (  3840 PWs)   bands (ev):

     4.1890   8.0248   8.0248   8.1912   8.5252   8.5286   8.5286   9.5284
     9.8576   9.8591  10.3106  10.3183  10.3183  10.4298  10.5962  10.8146
    10.8754  10.8754  11.1419  11.1419  11.1652  13.3450  13.3450  15.6215
    20.4659  20.8792

          k = 0.0625 0.1875 0.3125 (  3839 PWs)   bands (ev):

     4.9019   7.7823   8.3409   8.4451   8.6875   8.6972   8.7211   9.3773
     9.7417   9.8631   9.9053   9.9389   9.9891  10.3575  10.6385  10.6755
    10.7057  10.7210  10.9976  11.1089  11.1158  11.9421  14.3583  16.6925
    18.6749  21.1502

          k = 0.0625 0.1875 0.4375 (  3832 PWs)   bands (ev):

     5.8949   6.9916   8.6520   8.7098   8.8606   8.9190   8.9677   9.1590
     9.2908   9.4239   9.7649   9.8461  10.1799  10.4173  10.4619  10.4862
    10.5171  10.7536  10.9116  11.0949  11.0959  11.2149  15.5375  16.8801
    18.1822  19.6844

          k = 0.0625 0.3125 0.3125 (  3830 PWs)   bands (ev):

     5.5745   8.1597   8.1597   8.6065   8.7970   8.8599   8.8599   9.3229
     9.5116   9.5117   9.6608   9.8485  10.0461  10.3263  10.4900  10.5667
    10.5667  10.9158  10.9158  10.9236  10.9874  12.7505  12.7505  16.5131
    17.8278  21.6476

          k = 0.0625 0.3125 0.4375 (  3839 PWs)   bands (ev):

     6.4923   7.4721   8.5303   8.6832   8.9530   9.0335   9.0549   9.1995
     9.2389   9.4075   9.5412   9.7241  10.1556  10.3447  10.3711  10.4137
    10.4177  10.6660  10.8824  10.9056  11.2417  11.7576  13.7257  14.9649
    19.0306  20.5261

          k = 0.0625 0.4375 0.4375 (  3837 PWs)   bands (ev):

     7.2620   8.0107   8.0107   8.4246   9.1874   9.1875   9.2026   9.2183
     9.3363   9.3862   9.3862   9.6020  10.1307  10.2377  10.2377  10.2393
    10.4625  10.6475  10.6475  10.7365  11.7170  12.4665  12.4665  13.4866
    20.2251  21.6936

          k = 0.1875 0.1875 0.1875 (  3824 PWs)   bands (ev):

     4.5462   8.1754   8.1754   8.1754   8.6142   8.6142   8.6142   9.5016
     9.8683   9.8683  10.0920  10.0920  10.0920  10.5344  10.5344  10.6479
    10.6479  10.6479  11.1851  11.1851  11.1851  13.8814  13.8814  13.8814
    21.1053  21.1053

          k = 0.1875 0.1875 0.3125 (  3835 PWs)   bands (ev):

     5.2344   7.9383   8.4117   8.4117   8.7763   8.7763   8.7889   9.3986
     9.7256   9.7256   9.7898   9.8858   9.9188  10.4244  10.4986  10.4986
    10.5063  10.6997  11.1355  11.1355  11.1467  12.3002  14.7286  14.7286
    19.1645  19.1645

          k = 0.1875 0.1875 0.4375 (  3838 PWs)   bands (ev):

     6.1814   7.2058   8.6425   8.6425   8.8879   8.8879   9.0087   9.2233
     9.4738   9.4738   9.6915   9.7996  10.0318  10.2067  10.3748  10.3748
    10.7209  10.8801  11.0390  11.0854  11.0854  11.2786  15.6706  15.6706
    17.6814  17.6814

          k = 0.1875 0.3125 0.3125 (  3829 PWs)   bands (ev):

     5.8642   8.1591   8.1591   8.4508   8.9339   8.9782   8.9782   9.4069
     9.5849   9.5849   9.6755   9.8434   9.8989  10.2919  10.2919  10.3014
    10.5566  10.8554  11.0915  11.1037  11.1037  12.9550  12.9550  15.2128
    17.4446  19.9830

          k = 0.1875 0.3125 0.4375 (  3831 PWs)   bands (ev):

     6.6992   7.5505   8.3344   8.4271   9.0899   9.1316   9.2084   9.3543
     9.5325   9.5905   9.6196   9.7332   9.9501  10.0911  10.1860  10.1974
    10.7063  10.9637  11.0239  11.0257  11.1532  11.7488  13.8227  14.8332
    17.2627  18.3807

          k = 0.1875 0.4375 0.4375 (  3836 PWs)   bands (ev):

     7.3238   7.8954   7.8954   8.1790   9.3157   9.4166   9.4166   9.5023
     9.5674   9.5674   9.6454   9.6751   9.9206  10.0201  10.0201  10.0407
    10.7105  10.8754  10.8754  10.9156  11.6197  12.4347  12.4347  13.4566
    18.1426  19.4600

          k = 0.3125 0.3125 0.3125 (  3836 PWs)   bands (ev):

     6.3917   8.1313   8.1313   8.1313   9.1866   9.1866   9.1866   9.5728
     9.7078   9.7078   9.7078   9.8160   9.8160  10.0869  10.0869  10.0869
    10.7936  10.7936  11.1496  11.1496  11.1496  13.3461  13.3461  13.3461
    18.1172  18.1172

          k = 0.3125 0.3125 0.4375 (  3838 PWs)   bands (ev):

     7.0410   7.6547   8.1027   8.1027   9.3219   9.3219   9.4807   9.6956
     9.7416   9.7431   9.8212   9.8600   9.8600   9.9161   9.9856   9.9856
    10.9908  11.0170  11.0989  11.0990  11.1162  11.8776  13.7642  13.7642
    16.9301  16.9301

          k = 0.3125 0.4375 0.4375 (  3826 PWs)   bands (ev):

     7.4145   7.7664   7.7664   7.9096   9.4865   9.5499   9.5499   9.6924
     9.7645   9.8272   9.8272   9.8487  10.0936  10.0937  10.1198  10.1336
    10.9331  11.0631  11.0631  11.0669  11.4107  12.3459  12.3459  13.1280
    16.7920  17.6862

          k = 0.4375 0.4375 0.4375 (  3846 PWs)   bands (ev):

     7.5288   7.6889   7.6889   7.6889   9.6277   9.6277   9.6277   9.6963
     9.6963   9.7262   9.7262   9.7262  10.6281  10.6281  10.6281  11.0601
    11.0810  11.0810  11.1280  11.1280  11.1280  12.2025  12.2025  12.2025
    16.6644  16.6644

     the Fermi energy is    12.7167 ev

!    total energy              =    -852.38855567 Ry
     total all-electron energy =    -13239.907620 Ry
     estimated scf accuracy    <          1.5E-09 Ry
     smearing contrib. (-TS)   =      -0.00004549 Ry
     internal energy E=F+TS    =    -852.38851017 Ry

     The total energy is F=E-TS. E is the sum of the following terms:
     one-electron contribution =    -111.43004286 Ry
     hartree contribution      =     122.23096818 Ry
     xc contribution           =    -178.51560387 Ry
     ewald contribution        =    -325.28617016 Ry
     one-center paw contrib.   =    -359.38766147 Ry

     convergence has been achieved in  10 iterations

     Forces acting on atoms (cartesian axes, Ry/au):

     atom    1 type  1   force =     0.00000000    0.00000000    0.00000000
     atom    2 type  1   force =     0.00000000    0.00000000    0.00000000
     atom    3 type  1   force =     0.00000000    0.00000000    0.00000000
     atom    4 type  1   force =     0.00000000    0.00000000    0.00000000
     The non-local contrib.  to forces
     atom    1 type  1   force =     0.00000000    0.00000000    0.00000000
     atom    2 type  1   force =     0.00000000    0.00000000    0.00000000
     atom    3 type  1   force =     0.00000000    0.00000000    0.00000000
     atom    4 type  1   force =     0.00000000    0.00000000    0.00000000
     The ionic contribution  to forces
     atom    1 type  1   force =    -0.00000000   -0.00000000   -0.00000000
     atom    2 type  1   force =     0.00000000    0.00000000   -0.00000000
     atom    3 type  1   force =     0.00000000   -0.00000000    0.00000000
     atom    4 type  1   force =    -0.00000000    0.00000000    0.00000000
     The local contribution  to forces
     atom    1 type  1   force =    -0.00000000    0.00000000   -0.00000000
     atom    2 type  1   force =     0.00000000    0.00000000   -0.00000000
     atom    3 type  1   force =     0.00000000    0.00000000    0.00000000
     atom    4 type  1   force =     0.00000000    0.00000000    0.00000000
     The core correction contribution to forces
     atom    1 type  1   force =    -0.00000000    0.00000000    0.00000000
     atom    2 type  1   force =     0.00000000    0.00000000    0.00000000
     atom    3 type  1   force =     0.00000000   -0.00000000    0.00000000
     atom    4 type  1   force =    -0.00000000    0.00000000    0.00000000
     The Hubbard contrib.    to forces
     atom    1 type  1   force =     0.00000000    0.00000000    0.00000000
     atom    2 type  1   force =     0.00000000    0.00000000    0.00000000
     atom    3 type  1   force =     0.00000000    0.00000000    0.00000000
     atom    4 type  1   force =     0.00000000    0.00000000    0.00000000
     The SCF correction term to forces
     atom    1 type  1   force =    -0.00000000   -0.00000000    0.00000000
     atom    2 type  1   force =     0.00000000   -0.00000000    0.00000000
     atom    3 type  1   force =     0.00000000   -0.00000000    0.00000000
     atom    4 type  1   force =    -0.00000000    0.00000000    0.00000000

     Total force =     0.000000     Total SCF correction =     0.000000


     Computing stress (Cartesian axis) and pressure

          total   stress  (Ry/bohr**3)                   (kbar)     P=       20.71
   0.00014078   0.00000000   0.00000000           20.71        0.00        0.00
   0.00000000   0.00014078   0.00000000            0.00       20.71        0.00
   0.00000000   0.00000000   0.00014078            0.00        0.00       20.71


     Writing all to output data dir /Users/vittoriodibona/Desktop/Tutorial_LAMMPS/Esame/CopperQE/tmp/Cu_deg_0.005.save/

     init_run     :    155.77s CPU     90.12s WALL (       1 calls)
     electrons    :   6067.28s CPU   3210.67s WALL (       1 calls)
     forces       :    298.43s CPU    154.38s WALL (       1 calls)
     stress       :     43.92s CPU     23.22s WALL (       1 calls)

     Called by init_run:
     wfcinit      :    109.30s CPU     64.84s WALL (       1 calls)
     potinit      :      0.14s CPU      0.15s WALL (       1 calls)
     hinit0       :      0.33s CPU      0.33s WALL (       1 calls)

     Called by electrons:
     c_bands      :   5114.15s CPU   2715.84s WALL (      11 calls)
     sum_band     :    421.67s CPU    225.22s WALL (      11 calls)
     v_of_rho     :      0.76s CPU      0.68s WALL (      11 calls)
     newd         :    573.10s CPU    290.67s WALL (      11 calls)
     PAW_pot      :      2.02s CPU      2.26s WALL (      11 calls)
     mix_rho      :      0.36s CPU      0.16s WALL (      11 calls)

     Called by c_bands:
     init_us_2    :      1.15s CPU      0.69s WALL (     500 calls)
     init_us_2:cp :      1.09s CPU      0.68s WALL (     500 calls)
     cegterg      :   5076.64s CPU   2693.82s WALL (     220 calls)

     Called by *egterg:
     cdiaghg      :    260.06s CPU    120.64s WALL (     844 calls)
     h_psi        :   1831.66s CPU    979.78s WALL (     884 calls)
     s_psi        :    186.12s CPU     97.66s WALL (     884 calls)
     g_psi        :      0.21s CPU      0.10s WALL (     644 calls)

     Called by h_psi:
     h_psi:calbec :   1342.14s CPU    749.42s WALL (     884 calls)
     vloc_psi     :    304.90s CPU    131.86s WALL (     884 calls)
     add_vuspsi   :    184.50s CPU     98.30s WALL (     884 calls)

     General routines
     calbec       :   1892.75s CPU   1038.93s WALL (    1204 calls)
     fft          :      0.62s CPU      0.61s WALL (     167 calls)
     ffts         :      0.54s CPU      0.35s WALL (      22 calls)
     fftw         :    331.99s CPU    147.96s WALL (   39044 calls)
     interpolate  :      0.04s CPU      0.05s WALL (      11 calls)

     Parallel routines

     PWSCF        :      1h49m CPU  57m59.08s WALL


   This run was terminated on:  13: 4:22  23Jan2026            

=------------------------------------------------------------------------------=
   JOB DONE.
=------------------------------------------------------------------------------=
