
     Program PWSCF v.7.2 starts on 23Jan2026 at 16:43:27 

     This program is part of the open-source Quantum ESPRESSO suite
     for quantum simulation of materials; please cite
         "P. Giannozzi et al., J. Phys.:Condens. Matter 21 395502 (2009);
         "P. Giannozzi et al., J. Phys.:Condens. Matter 29 465901 (2017);
         "P. Giannozzi et al., J. Chem. Phys. 152 154105 (2020);
          URL http://www.quantum-espresso.org", 
     in publications or presentations arising from this work. More details at
     http://www.quantum-espresso.org/quote

     Parallel version (MPI), running on     4 processors

     MPI processes distributed on     1 nodes
     0 MiB available memory on the printing compute node when the environment starts

     Reading input from /Users/vittoriodibona/Desktop/Tutorial_LAMMPS/Esame/CopperQE/1_convergence/smearing/Cu_deg_0.03.in

     Current dimensions of program PWSCF are:
     Max number of different atomic species (ntypx) = 10
     Max number of k-points (npk) =  40000
     Max angular momentum in pseudopotentials (lmaxx) =  4
     file Cu.pbe-dn-kjpaw_psl.1.0.0.UPF: wavefunction(s)  4S 3D renormalized
     Found identity + ( -0.5000 -0.5000  0.0000) symmetry
     This is a supercell, fractional translations are disabled

     R & G space division:  proc/nbgrp/npool/nimage =       4
     Subspace diagonalization in iterative solution of the eigenvalue problem:
     a serial algorithm will be used


     Parallelization info
     --------------------
     sticks:   dense  smooth     PW     G-vecs:    dense   smooth      PW
     Min         741     298     86                30351     7709    1200
     Max         742     302     88                30354     7710    1201
     Sum        2965    1201    349               121409    30839    4801

     Using Slab Decomposition



     bravais-lattice index     =            1
     lattice parameter (alat)  =       6.8219  a.u.
     unit-cell volume          =     317.4813 (a.u.)^3
     number of atoms/cell      =            4
     number of atomic types    =            1
     number of electrons       =        44.00
     number of Kohn-Sham states=           26
     kinetic-energy cutoff     =      80.0000  Ry
     charge density cutoff     =     800.0000  Ry
     scf convergence threshold =      1.0E-08
     mixing beta               =       0.7000
     number of iterations used =            8  plain     mixing
     Exchange-correlation= SLA  PW   PBX  PBC
                           (   1   4   3   4   0   0   0)

     celldm(1)=   6.821911  celldm(2)=   0.000000  celldm(3)=   0.000000
     celldm(4)=   0.000000  celldm(5)=   0.000000  celldm(6)=   0.000000

     crystal axes: (cart. coord. in units of alat)
               a(1) = (   1.000000   0.000000   0.000000 )  
               a(2) = (   0.000000   1.000000   0.000000 )  
               a(3) = (   0.000000   0.000000   1.000000 )  

     reciprocal axes: (cart. coord. in units 2 pi/alat)
               b(1) = (  1.000000  0.000000  0.000000 )  
               b(2) = (  0.000000  1.000000  0.000000 )  
               b(3) = (  0.000000  0.000000  1.000000 )  


     PseudoPot. # 1 for Cu read from file:
     /Users/vittoriodibona/Desktop/Tutorial_LAMMPS/Esame/CopperQE/pseudo/Cu.pbe-dn-kjpaw_psl.1.0.0.UPF
     MD5 check sum: cfffd1f38ee05704b3e17f46f1730a6f
     Pseudo is Projector augmented-wave + core cor, Zval = 11.0
     Generated using &quot;atomic&quot; code by A. Dal Corso  v.6.3
     Shape of augmentation charge: PSQ
     Using radial grid of 1199 points,  6 beta functions with: 
                l(1) =   0
                l(2) =   0
                l(3) =   1
                l(4) =   1
                l(5) =   2
                l(6) =   2
     Q(r) pseudized with 0 coefficients 


     atomic species   valence    mass     pseudopotential
        Cu            11.00    63.54600     Cu( 1.00)

     48 Sym. Ops., with inversion, found



   Cartesian axes

     site n.     atom                  positions (alat units)
         1           Cu  tau(   1) = (   0.0000000   0.0000000   0.0000000  )
         2           Cu  tau(   2) = (   0.5000000   0.5000000   0.0000000  )
         3           Cu  tau(   3) = (   0.5000000   0.0000000   0.5000000  )
         4           Cu  tau(   4) = (   0.0000000   0.5000000   0.5000000  )

     number of k points=    20  Marzari-Vanderbilt smearing, width (Ry)=  0.0300
                       cart. coord. in units 2pi/alat
        k(    1) = (   0.0625000   0.0625000   0.0625000), wk =   0.0312500
        k(    2) = (   0.0625000   0.0625000   0.1875000), wk =   0.0937500
        k(    3) = (   0.0625000   0.0625000   0.3125000), wk =   0.0937500
        k(    4) = (   0.0625000   0.0625000   0.4375000), wk =   0.0937500
        k(    5) = (   0.0625000   0.1875000   0.1875000), wk =   0.0937500
        k(    6) = (   0.0625000   0.1875000   0.3125000), wk =   0.1875000
        k(    7) = (   0.0625000   0.1875000   0.4375000), wk =   0.1875000
        k(    8) = (   0.0625000   0.3125000   0.3125000), wk =   0.0937500
        k(    9) = (   0.0625000   0.3125000   0.4375000), wk =   0.1875000
        k(   10) = (   0.0625000   0.4375000   0.4375000), wk =   0.0937500
        k(   11) = (   0.1875000   0.1875000   0.1875000), wk =   0.0312500
        k(   12) = (   0.1875000   0.1875000   0.3125000), wk =   0.0937500
        k(   13) = (   0.1875000   0.1875000   0.4375000), wk =   0.0937500
        k(   14) = (   0.1875000   0.3125000   0.3125000), wk =   0.0937500
        k(   15) = (   0.1875000   0.3125000   0.4375000), wk =   0.1875000
        k(   16) = (   0.1875000   0.4375000   0.4375000), wk =   0.0937500
        k(   17) = (   0.3125000   0.3125000   0.3125000), wk =   0.0312500
        k(   18) = (   0.3125000   0.3125000   0.4375000), wk =   0.0937500
        k(   19) = (   0.3125000   0.4375000   0.4375000), wk =   0.0937500
        k(   20) = (   0.4375000   0.4375000   0.4375000), wk =   0.0312500

     Dense  grid:   121409 G-vectors     FFT dimensions: (  64,  64,  64)

     Smooth grid:    30839 G-vectors     FFT dimensions: (  40,  40,  40)

     Estimated max dynamical RAM per process >     121.35 MB

     Estimated total dynamical RAM >     485.41 MB

     Initial potential from superposition of free atoms

     starting charge      43.9991, renormalised to      44.0000
     Starting wfcs are   36 randomized atomic wfcs
     Checking if some PAW data can be deallocated... 

     total cpu time spent up to now is       96.5 secs

     Self-consistent Calculation

     iteration #  1     ecut=    80.00 Ry     beta= 0.70
     Davidson diagonalization with overlap
     ethr =  1.00E-02,  avg # of iterations =  2.5

     Threshold (ethr) on eigenvalues was too large:
     Diagonalizing with lowered threshold

     Davidson diagonalization with overlap
     ethr =  3.81E-04,  avg # of iterations =  3.0

     total cpu time spent up to now is      584.0 secs

     total energy              =    -852.25207708 Ry
     estimated scf accuracy    <       0.23267568 Ry

     iteration #  2     ecut=    80.00 Ry     beta= 0.70
     Davidson diagonalization with overlap
     ethr =  5.29E-04,  avg # of iterations =  3.1

     total cpu time spent up to now is      879.2 secs

     total energy              =    -852.26629192 Ry
     estimated scf accuracy    <       0.77227447 Ry

     iteration #  3     ecut=    80.00 Ry     beta= 0.70
     Davidson diagonalization with overlap
     ethr =  5.29E-04,  avg # of iterations =  2.0

     total cpu time spent up to now is     1147.8 secs

     total energy              =    -852.38662359 Ry
     estimated scf accuracy    <       0.00091770 Ry

     iteration #  4     ecut=    80.00 Ry     beta= 0.70
     Davidson diagonalization with overlap
     ethr =  2.09E-06,  avg # of iterations =  5.8

     total cpu time spent up to now is     1613.0 secs

     total energy              =    -852.38790498 Ry
     estimated scf accuracy    <       0.00124036 Ry

     iteration #  5     ecut=    80.00 Ry     beta= 0.70
     Davidson diagonalization with overlap
     ethr =  2.09E-06,  avg # of iterations =  1.1

     total cpu time spent up to now is     1798.7 secs

     total energy              =    -852.38766972 Ry
     estimated scf accuracy    <       0.00069549 Ry

     iteration #  6     ecut=    80.00 Ry     beta= 0.70
     Davidson diagonalization with overlap
     ethr =  1.58E-06,  avg # of iterations =  2.0

     total cpu time spent up to now is     2046.0 secs

     total energy              =    -852.38778705 Ry
     estimated scf accuracy    <       0.00000042 Ry

     iteration #  7     ecut=    80.00 Ry     beta= 0.70
     Davidson diagonalization with overlap
     ethr =  9.62E-10,  avg # of iterations =  5.2

     total cpu time spent up to now is     2473.5 secs

     total energy              =    -852.38778828 Ry
     estimated scf accuracy    <       0.00000072 Ry

     iteration #  8     ecut=    80.00 Ry     beta= 0.70
     Davidson diagonalization with overlap
     ethr =  9.62E-10,  avg # of iterations =  2.6

     total cpu time spent up to now is     2759.4 secs

     total energy              =    -852.38778855 Ry
     estimated scf accuracy    <       0.00000070 Ry

     iteration #  9     ecut=    80.00 Ry     beta= 0.70
     Davidson diagonalization with overlap
     ethr =  9.62E-10,  avg # of iterations =  1.4

     total cpu time spent up to now is     2964.4 secs

     total energy              =    -852.38778857 Ry
     estimated scf accuracy    <       0.00000008 Ry

     iteration # 10     ecut=    80.00 Ry     beta= 0.70
     Davidson diagonalization with overlap
     ethr =  1.80E-10,  avg # of iterations =  2.1

     total cpu time spent up to now is     3221.1 secs

     End of self-consistent calculation

          k = 0.0625 0.0625 0.0625 (  3836 PWs)   bands (ev):

     3.4453   7.8727   7.8727   7.8727   8.3373   8.3373   8.3373   9.6852
     9.7433   9.7433  10.5415  10.5415  11.0667  11.0667  11.0667  11.0888
    11.0888  11.0888  11.2488  11.2488  11.2488  14.1441  14.1441  14.1441
    20.3056  20.3056

          k = 0.0625 0.0625 0.1875 (  3848 PWs)   bands (ev):

     3.8212   7.8391   8.0430   8.0430   8.4357   8.4423   8.4423   9.5843
     9.8227   9.8258  10.4474  10.5819  10.5819  10.5886  10.8773  10.9483
    10.9483  10.9683  11.1596  11.2396  11.2396  12.5943  14.9577  14.9577
    20.4810  20.4810

          k = 0.0625 0.0625 0.3125 (  3835 PWs)   bands (ev):

     4.5518   7.5599   8.3237   8.3238   8.6197   8.6536   8.6536   9.3876
     9.9656   9.9656   9.9715   9.9864  10.3074  10.4136  10.6758  10.7353
    10.7353  10.7576  11.0423  11.2362  11.2362  11.2914  16.1734  16.1734
    20.7720  20.7721

          k = 0.0625 0.0625 0.4375 (  3846 PWs)   bands (ev):

     5.5759   6.7199   8.5723   8.5723   8.8641   8.9692   8.9692   9.1337
     9.4167   9.4167  10.0060  10.0178  10.2139  10.3652  10.4848  10.5395
    10.5395  10.6987  10.7905  10.9174  11.2351  11.2351  17.5962  17.5962
    19.2198  19.2198

          k = 0.0625 0.1875 0.1875 (  3840 PWs)   bands (ev):

     4.1892   8.0276   8.0276   8.1944   8.5288   8.5323   8.5323   9.5326
     9.8620   9.8634  10.3146  10.3222  10.3222  10.4343  10.6008  10.8192
    10.8800  10.8800  11.1467  11.1467  11.1700  13.3471  13.3471  15.6229
    20.4673  20.8804

          k = 0.0625 0.1875 0.3125 (  3839 PWs)   bands (ev):

     4.9022   7.7842   8.3439   8.4485   8.6910   8.7009   8.7248   9.3814
     9.7454   9.8669   9.9096   9.9426   9.9935  10.3620  10.6431  10.6800
    10.7103  10.7256  11.0023  11.1136  11.1206  11.9455  14.3604  16.6940
    18.6763  21.1516

          k = 0.0625 0.1875 0.4375 (  3832 PWs)   bands (ev):

     5.8953   6.9925   8.6552   8.7132   8.8640   8.9229   8.9714   9.1630
     9.2944   9.4276   9.7689   9.8504  10.1843  10.4218  10.4664  10.4907
    10.5216  10.7580  10.9162  11.0997  11.1007  11.2193  15.5395  16.8818
    18.1837  19.6858

          k = 0.0625 0.3125 0.3125 (  3830 PWs)   bands (ev):

     5.5748   8.1619   8.1619   8.6101   8.8003   8.8636   8.8636   9.3269
     9.5155   9.5155   9.6646   9.8528  10.0505  10.3308  10.4945  10.5712
    10.5712  10.9204  10.9204  10.9282  10.9922  12.7535  12.7535  16.5147
    17.8294  21.6488

          k = 0.0625 0.3125 0.4375 (  3839 PWs)   bands (ev):

     6.4929   7.4733   8.5329   8.6863   8.9565   9.0373   9.0586   9.2034
     9.2427   9.4112   9.5453   9.7283  10.1601  10.3491  10.3756  10.4181
    10.4222  10.6706  10.8871  10.9104  11.2462  11.7616  13.7283  14.9670
    19.0321  20.5275

          k = 0.0625 0.4375 0.4375 (  3837 PWs)   bands (ev):

     7.2629   8.0123   8.0123   8.4271   9.1911   9.1911   9.2062   9.2221
     9.3401   9.3902   9.3902   9.6061  10.1351  10.2421  10.2421  10.2437
    10.4670  10.6521  10.6521  10.7412  11.7212  12.4700  12.4700  13.4894
    20.2265  21.6949

          k = 0.1875 0.1875 0.1875 (  3824 PWs)   bands (ev):

     4.5464   8.1784   8.1784   8.1784   8.6178   8.6178   8.6178   9.5057
     9.8726   9.8726  10.0957  10.0957  10.0957  10.5390  10.5390  10.6525
    10.6525  10.6525  11.1899  11.1899  11.1899  13.8835  13.8835  13.8835
    21.1065  21.1065

          k = 0.1875 0.1875 0.3125 (  3835 PWs)   bands (ev):

     5.2347   7.9405   8.4149   8.4149   8.7798   8.7798   8.7926   9.4026
     9.7293   9.7293   9.7935   9.8901   9.9232  10.4290  10.5031  10.5031
    10.5109  10.7043  11.1403  11.1403  11.1515  12.3033  14.7307  14.7307
    19.1659  19.1659

          k = 0.1875 0.1875 0.4375 (  3838 PWs)   bands (ev):

     6.1820   7.2068   8.6459   8.6459   8.8913   8.8913   9.0125   9.2271
     9.4776   9.4776   9.6956   9.8039  10.0362  10.2112  10.3792  10.3793
    10.7253  10.8848  11.0437  11.0902  11.0902  11.2826  15.6724  15.6724
    17.6831  17.6831

          k = 0.1875 0.3125 0.3125 (  3829 PWs)   bands (ev):

     5.8646   8.1616   8.1616   8.4541   8.9373   8.9817   8.9817   9.4107
     9.5887   9.5887   9.6793   9.8477   9.9033  10.2963  10.2963  10.3059
    10.5612  10.8600  11.0963  11.1085  11.1085  12.9578  12.9578  15.2147
    17.4463  19.9844

          k = 0.1875 0.3125 0.4375 (  3831 PWs)   bands (ev):

     6.7000   7.5520   8.3373   8.4303   9.0934   9.1352   9.2119   9.3579
     9.5362   9.5946   9.6232   9.7375   9.9544  10.0955  10.1904  10.2018
    10.7109  10.9683  11.0286  11.0304  11.1577  11.7526  13.8251  14.8350
    17.2647  18.3823

          k = 0.1875 0.4375 0.4375 (  3836 PWs)   bands (ev):

     7.3252   7.8976   7.8976   8.1818   9.3194   9.4202   9.4202   9.5056
     9.5710   9.5710   9.6496   9.6785   9.9250  10.0245  10.0245  10.0450
    10.7151  10.8801  10.8801  10.9203  11.6238  12.4380  12.4380  13.4591
    18.1444  19.4616

          k = 0.3125 0.3125 0.3125 (  3836 PWs)   bands (ev):

     6.3925   8.1341   8.1341   8.1341   9.1901   9.1901   9.1901   9.5761
     9.7115   9.7115   9.7115   9.8204   9.8204  10.0913  10.0913  10.0913
    10.7983  10.7983  11.1544  11.1544  11.1544  13.3485  13.3485  13.3485
    18.1189  18.1189

          k = 0.3125 0.3125 0.4375 (  3838 PWs)   bands (ev):

     7.0423   7.6568   8.1057   8.1057   9.3257   9.3257   9.4843   9.6989
     9.7455   9.7467   9.8256   9.8635   9.8635   9.9205   9.9899   9.9899
    10.9956  11.0214  11.1037  11.1037  11.1210  11.8809  13.7661  13.7661
    16.9322  16.9322

          k = 0.3125 0.4375 0.4375 (  3826 PWs)   bands (ev):

     7.4165   7.7690   7.7690   7.9124   9.4905   9.5539   9.5539   9.6966
     9.7688   9.8315   9.8315   9.8530  10.0968  10.0968  10.1223  10.1369
    10.9378  11.0678  11.0678  11.0717  11.4147  12.3486  12.3486  13.1299
    16.7943  17.6882

          k = 0.4375 0.4375 0.4375 (  3846 PWs)   bands (ev):

     7.5313   7.6917   7.6917   7.6917   9.6319   9.6319   9.6319   9.7006
     9.7006   9.7304   9.7304   9.7304  10.6315  10.6315  10.6315  11.0610
    11.0858  11.0858  11.1328  11.1328  11.1328  12.2041  12.2042  12.2042
    16.6668  16.6668

     the Fermi energy is    12.7177 ev

!    total energy              =    -852.38778858 Ry
     total all-electron energy =    -13239.906853 Ry
     estimated scf accuracy    <          6.5E-11 Ry
     smearing contrib. (-TS)   =       0.00044452 Ry
     internal energy E=F+TS    =    -852.38823311 Ry

     The total energy is F=E-TS. E is the sum of the following terms:
     one-electron contribution =    -111.43998030 Ry
     hartree contribution      =     122.24343765 Ry
     xc contribution           =    -178.51858832 Ry
     ewald contribution        =    -325.28617016 Ry
     one-center paw contrib.   =    -359.38693198 Ry

     convergence has been achieved in  10 iterations

     Forces acting on atoms (cartesian axes, Ry/au):

     atom    1 type  1   force =     0.00000000    0.00000000    0.00000000
     atom    2 type  1   force =     0.00000000    0.00000000    0.00000000
     atom    3 type  1   force =     0.00000000    0.00000000    0.00000000
     atom    4 type  1   force =     0.00000000    0.00000000    0.00000000
     The non-local contrib.  to forces
     atom    1 type  1   force =     0.00000000    0.00000000    0.00000000
     atom    2 type  1   force =     0.00000000    0.00000000    0.00000000
     atom    3 type  1   force =     0.00000000    0.00000000    0.00000000
     atom    4 type  1   force =     0.00000000    0.00000000    0.00000000
     The ionic contribution  to forces
     atom    1 type  1   force =    -0.00000000   -0.00000000   -0.00000000
     atom    2 type  1   force =     0.00000000    0.00000000   -0.00000000
     atom    3 type  1   force =     0.00000000   -0.00000000    0.00000000
     atom    4 type  1   force =    -0.00000000    0.00000000    0.00000000
     The local contribution  to forces
     atom    1 type  1   force =     0.00000000    0.00000000   -0.00000000
     atom    2 type  1   force =     0.00000000    0.00000000   -0.00000000
     atom    3 type  1   force =     0.00000000   -0.00000000    0.00000000
     atom    4 type  1   force =    -0.00000000    0.00000000    0.00000000
     The core correction contribution to forces
     atom    1 type  1   force =    -0.00000000   -0.00000000   -0.00000000
     atom    2 type  1   force =     0.00000000    0.00000000   -0.00000000
     atom    3 type  1   force =     0.00000000    0.00000000    0.00000000
     atom    4 type  1   force =    -0.00000000    0.00000000    0.00000000
     The Hubbard contrib.    to forces
     atom    1 type  1   force =     0.00000000    0.00000000    0.00000000
     atom    2 type  1   force =     0.00000000    0.00000000    0.00000000
     atom    3 type  1   force =     0.00000000    0.00000000    0.00000000
     atom    4 type  1   force =     0.00000000    0.00000000    0.00000000
     The SCF correction term to forces
     atom    1 type  1   force =    -0.00000000    0.00000000    0.00000000
     atom    2 type  1   force =    -0.00000000    0.00000000    0.00000000
     atom    3 type  1   force =     0.00000000    0.00000000    0.00000000
     atom    4 type  1   force =     0.00000000   -0.00000000    0.00000000

     Total force =     0.000000     Total SCF correction =     0.000000


     Computing stress (Cartesian axis) and pressure

          total   stress  (Ry/bohr**3)                   (kbar)     P=       21.83
   0.00014839   0.00000000   0.00000000           21.83        0.00        0.00
   0.00000000   0.00014839   0.00000000            0.00       21.83        0.00
   0.00000000   0.00000000   0.00014839            0.00        0.00       21.83


     Writing all to output data dir /Users/vittoriodibona/Desktop/Tutorial_LAMMPS/Esame/CopperQE/tmp/Cu_deg_0.03.save/

     init_run     :    183.74s CPU     96.17s WALL (       1 calls)
     electrons    :   5872.35s CPU   3124.64s WALL (       1 calls)
     forces       :    295.53s CPU    152.46s WALL (       1 calls)
     stress       :     42.36s CPU     22.12s WALL (       1 calls)

     Called by init_run:
     wfcinit      :    132.47s CPU     69.48s WALL (       1 calls)
     potinit      :      0.24s CPU      0.29s WALL (       1 calls)
     hinit0       :      0.53s CPU      0.45s WALL (       1 calls)

     Called by electrons:
     c_bands      :   4922.68s CPU   2629.19s WALL (      11 calls)
     sum_band     :    423.21s CPU    225.73s WALL (      11 calls)
     v_of_rho     :      0.71s CPU      0.61s WALL (      11 calls)
     newd         :    573.14s CPU    292.43s WALL (      11 calls)
     PAW_pot      :      2.13s CPU      2.05s WALL (      11 calls)
     mix_rho      :      0.31s CPU      0.21s WALL (      11 calls)

     Called by c_bands:
     init_us_2    :      0.93s CPU      0.53s WALL (     500 calls)
     init_us_2:cp :      0.92s CPU      0.53s WALL (     500 calls)
     cegterg      :   4888.44s CPU   2607.13s WALL (     220 calls)

     Called by *egterg:
     cdiaghg      :    241.26s CPU    113.11s WALL (     815 calls)
     h_psi        :   1787.72s CPU    957.72s WALL (     855 calls)
     s_psi        :    181.86s CPU     94.57s WALL (     855 calls)
     g_psi        :      0.26s CPU      0.14s WALL (     615 calls)

     Called by h_psi:
     h_psi:calbec :   1317.07s CPU    732.98s WALL (     855 calls)
     vloc_psi     :    286.71s CPU    127.42s WALL (     855 calls)
     add_vuspsi   :    183.75s CPU     97.21s WALL (     855 calls)

     General routines
     calbec       :   1865.49s CPU   1021.94s WALL (    1175 calls)
     fft          :      0.80s CPU      0.62s WALL (     167 calls)
     ffts         :      0.59s CPU      0.35s WALL (      22 calls)
     fftw         :    314.14s CPU    143.66s WALL (   38464 calls)
     interpolate  :      0.03s CPU      0.03s WALL (      11 calls)

     Parallel routines

     PWSCF        :      1h46m CPU  56m35.93s WALL


   This run was terminated on:  17:40: 2  23Jan2026            

=------------------------------------------------------------------------------=
   JOB DONE.
=------------------------------------------------------------------------------=
