
     Program PWSCF v.7.2 starts on 22Jan2026 at 17:14:56 

     This program is part of the open-source Quantum ESPRESSO suite
     for quantum simulation of materials; please cite
         "P. Giannozzi et al., J. Phys.:Condens. Matter 21 395502 (2009);
         "P. Giannozzi et al., J. Phys.:Condens. Matter 29 465901 (2017);
         "P. Giannozzi et al., J. Chem. Phys. 152 154105 (2020);
          URL http://www.quantum-espresso.org", 
     in publications or presentations arising from this work. More details at
     http://www.quantum-espresso.org/quote

     Parallel version (MPI), running on     4 processors

     MPI processes distributed on     1 nodes
     0 MiB available memory on the printing compute node when the environment starts

     Reading input from /Users/vittoriodibona/Desktop/Tutorial_LAMMPS/Esame/CopperQE/1_convergence/ecut/Cu_ecut_30Ry_k6.in

     Current dimensions of program PWSCF are:
     Max number of different atomic species (ntypx) = 10
     Max number of k-points (npk) =  40000
     Max angular momentum in pseudopotentials (lmaxx) =  4
     file Cu.pbe-dn-kjpaw_psl.1.0.0.UPF: wavefunction(s)  4S 3D renormalized
     Found identity + ( -0.5000 -0.5000  0.0000) symmetry
     This is a supercell, fractional translations are disabled

     R & G space division:  proc/nbgrp/npool/nimage =       4
     Subspace diagonalization in iterative solution of the eigenvalue problem:
     a serial algorithm will be used


     Parallelization info
     --------------------
     sticks:   dense  smooth     PW     G-vecs:    dense   smooth      PW
     Min         276     109     34                 6955     1767     308
     Max         278     110     35                 6958     1772     311
     Sum        1109     437    137                27825     7075    1237

     Using Slab Decomposition



     bravais-lattice index     =            1
     lattice parameter (alat)  =       6.8219  a.u.
     unit-cell volume          =     317.4813 (a.u.)^3
     number of atoms/cell      =            4
     number of atomic types    =            1
     number of electrons       =        44.00
     number of Kohn-Sham states=           26
     kinetic-energy cutoff     =      30.0000  Ry
     charge density cutoff     =     300.0000  Ry
     scf convergence threshold =      1.0E-08
     mixing beta               =       0.7000
     number of iterations used =            8  plain     mixing
     Exchange-correlation= SLA  PW   PBX  PBC
                           (   1   4   3   4   0   0   0)

     celldm(1)=   6.821911  celldm(2)=   0.000000  celldm(3)=   0.000000
     celldm(4)=   0.000000  celldm(5)=   0.000000  celldm(6)=   0.000000

     crystal axes: (cart. coord. in units of alat)
               a(1) = (   1.000000   0.000000   0.000000 )  
               a(2) = (   0.000000   1.000000   0.000000 )  
               a(3) = (   0.000000   0.000000   1.000000 )  

     reciprocal axes: (cart. coord. in units 2 pi/alat)
               b(1) = (  1.000000  0.000000  0.000000 )  
               b(2) = (  0.000000  1.000000  0.000000 )  
               b(3) = (  0.000000  0.000000  1.000000 )  


     PseudoPot. # 1 for Cu read from file:
     /Users/vittoriodibona/Desktop/Tutorial_LAMMPS/Esame/CopperQE/pseudo/Cu.pbe-dn-kjpaw_psl.1.0.0.UPF
     MD5 check sum: cfffd1f38ee05704b3e17f46f1730a6f
     Pseudo is Projector augmented-wave + core cor, Zval = 11.0
     Generated using &quot;atomic&quot; code by A. Dal Corso  v.6.3
     Shape of augmentation charge: PSQ
     Using radial grid of 1199 points,  6 beta functions with: 
                l(1) =   0
                l(2) =   0
                l(3) =   1
                l(4) =   1
                l(5) =   2
                l(6) =   2
     Q(r) pseudized with 0 coefficients 


     atomic species   valence    mass     pseudopotential
        Cu            11.00    63.54600     Cu( 1.00)

     48 Sym. Ops., with inversion, found



   Cartesian axes

     site n.     atom                  positions (alat units)
         1           Cu  tau(   1) = (   0.0000000   0.0000000   0.0000000  )
         2           Cu  tau(   2) = (   0.5000000   0.5000000   0.0000000  )
         3           Cu  tau(   3) = (   0.5000000   0.0000000   0.5000000  )
         4           Cu  tau(   4) = (   0.0000000   0.5000000   0.5000000  )

     number of k points=    10  Marzari-Vanderbilt smearing, width (Ry)=  0.0200
                       cart. coord. in units 2pi/alat
        k(    1) = (   0.0833333   0.0833333   0.0833333), wk =   0.0740741
        k(    2) = (   0.0833333   0.0833333   0.2500000), wk =   0.2222222
        k(    3) = (   0.0833333   0.0833333   0.4166667), wk =   0.2222222
        k(    4) = (   0.0833333   0.2500000   0.2500000), wk =   0.2222222
        k(    5) = (   0.0833333   0.2500000   0.4166667), wk =   0.4444444
        k(    6) = (   0.0833333   0.4166667   0.4166667), wk =   0.2222222
        k(    7) = (   0.2500000   0.2500000   0.2500000), wk =   0.0740741
        k(    8) = (   0.2500000   0.2500000   0.4166667), wk =   0.2222222
        k(    9) = (   0.2500000   0.4166667   0.4166667), wk =   0.2222222
        k(   10) = (   0.4166667   0.4166667   0.4166667), wk =   0.0740741

     Dense  grid:    27825 G-vectors     FFT dimensions: (  40,  40,  40)

     Smooth grid:     7075 G-vectors     FFT dimensions: (  24,  24,  24)

     Estimated max dynamical RAM per process >      27.88 MB

     Estimated total dynamical RAM >     111.54 MB

     Initial potential from superposition of free atoms

     starting charge      43.9991, renormalised to      44.0000
     Starting wfcs are   36 randomized atomic wfcs
     Checking if some PAW data can be deallocated... 

     total cpu time spent up to now is       24.1 secs

     Self-consistent Calculation

     iteration #  1     ecut=    30.00 Ry     beta= 0.70
     Davidson diagonalization with overlap
     ethr =  1.00E-02,  avg # of iterations =  2.4

     Threshold (ethr) on eigenvalues was too large:
     Diagonalizing with lowered threshold

     Davidson diagonalization with overlap
     ethr =  4.84E-04,  avg # of iterations =  2.2

     total cpu time spent up to now is      154.6 secs

     total energy              =    -852.16249239 Ry
     estimated scf accuracy    <       0.27007762 Ry

     iteration #  2     ecut=    30.00 Ry     beta= 0.70
     Davidson diagonalization with overlap
     ethr =  6.14E-04,  avg # of iterations =  2.8

     total cpu time spent up to now is      231.9 secs

     total energy              =    -852.19039769 Ry
     estimated scf accuracy    <       0.83138113 Ry

     iteration #  3     ecut=    30.00 Ry     beta= 0.70
     Davidson diagonalization with overlap
     ethr =  6.14E-04,  avg # of iterations =  2.1

     total cpu time spent up to now is      296.3 secs

     total energy              =    -852.31972984 Ry
     estimated scf accuracy    <       0.00108928 Ry

     iteration #  4     ecut=    30.00 Ry     beta= 0.70
     Davidson diagonalization with overlap
     ethr =  2.48E-06,  avg # of iterations =  5.6

     total cpu time spent up to now is      430.7 secs

     total energy              =    -852.32118319 Ry
     estimated scf accuracy    <       0.00133305 Ry

     iteration #  5     ecut=    30.00 Ry     beta= 0.70
     Davidson diagonalization with overlap
     ethr =  2.48E-06,  avg # of iterations =  1.0

     total cpu time spent up to now is      480.5 secs

     total energy              =    -852.32105338 Ry
     estimated scf accuracy    <       0.00052719 Ry

     iteration #  6     ecut=    30.00 Ry     beta= 0.70
     Davidson diagonalization with overlap
     ethr =  1.20E-06,  avg # of iterations =  2.0

     total cpu time spent up to now is      545.1 secs

     total energy              =    -852.32111790 Ry
     estimated scf accuracy    <       0.00000748 Ry

     iteration #  7     ecut=    30.00 Ry     beta= 0.70
     Davidson diagonalization with overlap
     ethr =  1.70E-08,  avg # of iterations =  3.5

     total cpu time spent up to now is      630.7 secs

     total energy              =    -852.32112055 Ry
     estimated scf accuracy    <       0.00000007 Ry

     iteration #  8     ecut=    30.00 Ry     beta= 0.70
     Davidson diagonalization with overlap
     ethr =  1.60E-10,  avg # of iterations =  5.9

     total cpu time spent up to now is      776.7 secs

     total energy              =    -852.32112060 Ry
     estimated scf accuracy    <       0.00000094 Ry

     iteration #  9     ecut=    30.00 Ry     beta= 0.70
     Davidson diagonalization with overlap
     ethr =  1.60E-10,  avg # of iterations =  2.1

     total cpu time spent up to now is      856.2 secs

     total energy              =    -852.32112062 Ry
     estimated scf accuracy    <       0.00000013 Ry

     iteration # 10     ecut=    30.00 Ry     beta= 0.70
     Davidson diagonalization with overlap
     ethr =  1.60E-10,  avg # of iterations =  2.2

     total cpu time spent up to now is      933.9 secs

     End of self-consistent calculation

          k = 0.0833 0.0833 0.0833 (   883 PWs)   bands (ev):

     3.5660   7.8677   7.8677   7.8677   8.3173   8.3173   8.3173   9.6140
     9.7201   9.7201  10.4832  10.4832  10.8946  10.8946  10.8946  10.9720
    10.9720  10.9720  11.1638  11.1638  11.1638  14.1141  14.1141  14.1141
    20.6758  20.6758

          k = 0.0833 0.0833 0.2500 (   872 PWs)   bands (ev):

     4.2255   7.7679   8.1524   8.1524   8.4890   8.5078   8.5078   9.4406
     9.8416   9.8442  10.1775  10.1775  10.3363  10.4892  10.5702  10.7731
    10.7753  10.7753  11.0686  11.1492  11.1492  12.0025  15.3521  15.3521
    21.0187  21.0187

          k = 0.0833 0.0833 0.4167 (   873 PWs)   bands (ev):

     5.4625   6.9466   8.5249   8.5249   8.7834   8.8595   8.8595   9.1348
     9.4374   9.4374   9.9231   9.9296  10.0977  10.3302  10.4351  10.5005
    10.5005  10.7243  10.8167  10.9015  11.1426  11.1426  17.0889  17.0889
    19.2138  19.2138

          k = 0.0833 0.2500 0.2500 (   882 PWs)   bands (ev):

     4.8568   8.1000   8.1000   8.3709   8.6270   8.6475   8.6475   9.3767
     9.8056   9.8056   9.8428   9.8855   9.8985  10.3376  10.5681  10.6306
    10.6306  10.6546  11.0151  11.0151  11.0313  13.0285  13.0285  16.2852
    18.6724  21.4863

          k = 0.0833 0.2500 0.4167 (   878 PWs)   bands (ev):

     6.0242   7.3827   8.5581   8.6745   8.7932   8.9029   8.9134   9.1754
     9.2754   9.4428   9.5847   9.7544  10.0597  10.3294  10.3734  10.4045
    10.4278  10.7588  10.9498  10.9529  10.9548  11.5328  14.3940  16.1134
    18.0643  20.0013

          k = 0.0833 0.4167 0.4167 (   885 PWs)   bands (ev):

     7.0033   8.0129   8.0129   8.4546   9.1018   9.1312   9.1312   9.2017
     9.3390   9.3390   9.3661   9.6147  10.0379  10.1895  10.1990  10.1990
    10.4092  10.6640  10.6640  10.7436  11.4790  12.4615  12.4615  13.9014
    19.4656  21.4034

          k = 0.2500 0.2500 0.2500 (   886 PWs)   bands (ev):

     5.4393   8.2379   8.2379   8.2379   8.8131   8.8131   8.8131   9.4067
     9.6812   9.6812   9.6812   9.8237   9.8237  10.3069  10.3069  10.3069
    10.5852  10.5852  11.1058  11.1058  11.1058  13.6570  13.6570  13.6570
    19.4761  19.4761

          k = 0.2500 0.2500 0.4167 (   889 PWs)   bands (ev):

     6.4771   7.5970   8.3456   8.3456   9.0339   9.0339   9.1342   9.3561
     9.5771   9.5820   9.5820   9.7307   9.8609  10.0322  10.1409  10.1410
    10.7696  10.8548  11.0267  11.0267  11.0421  11.7123  14.5886  14.5886
    17.3973  17.3973

          k = 0.2500 0.4167 0.4167 (   884 PWs)   bands (ev):

     7.1836   7.8421   7.8421   8.0773   9.3059   9.3992   9.3992   9.6592
     9.6790   9.7085   9.7085   9.7846   9.8304   9.9140   9.9140   9.9265
    10.7438  10.9557  10.9557  10.9673  11.3025  12.4504  12.4504  13.7159
    17.0836  18.5622

          k = 0.4167 0.4167 0.4167 (   898 PWs)   bands (ev):

     7.4244   7.7126   7.7126   7.7126   9.5376   9.5376   9.5376   9.6599
     9.6599   9.7187   9.7187   9.7187  10.3788  10.3788  10.3788  10.7115
    10.9851  10.9851  11.0674  11.0674  11.0674  12.4134  12.4134  12.4134
    16.8081  16.8081

     the Fermi energy is    12.5944 ev

!    total energy              =    -852.32112064 Ry
     total all-electron energy =    -13239.840185 Ry
     estimated scf accuracy    <          1.6E-09 Ry
     smearing contrib. (-TS)   =      -0.00115527 Ry
     internal energy E=F+TS    =    -852.31996537 Ry

     The total energy is F=E-TS. E is the sum of the following terms:
     one-electron contribution =    -111.23466746 Ry
     hartree contribution      =     122.00392240 Ry
     xc contribution           =    -178.43916221 Ry
     ewald contribution        =    -325.28617016 Ry
     one-center paw contrib.   =    -359.36388795 Ry

     convergence has been achieved in  10 iterations

     Forces acting on atoms (cartesian axes, Ry/au):

     atom    1 type  1   force =     0.00000000    0.00000000    0.00000000
     atom    2 type  1   force =     0.00000000    0.00000000    0.00000000
     atom    3 type  1   force =     0.00000000    0.00000000    0.00000000
     atom    4 type  1   force =     0.00000000    0.00000000    0.00000000
     The non-local contrib.  to forces
     atom    1 type  1   force =     0.00000000    0.00000000    0.00000000
     atom    2 type  1   force =     0.00000000    0.00000000    0.00000000
     atom    3 type  1   force =     0.00000000    0.00000000    0.00000000
     atom    4 type  1   force =     0.00000000    0.00000000    0.00000000
     The ionic contribution  to forces
     atom    1 type  1   force =    -0.00000000   -0.00000000   -0.00000000
     atom    2 type  1   force =     0.00000000    0.00000000   -0.00000000
     atom    3 type  1   force =     0.00000000   -0.00000000    0.00000000
     atom    4 type  1   force =    -0.00000000    0.00000000    0.00000000
     The local contribution  to forces
     atom    1 type  1   force =     0.00000000   -0.00000000   -0.00000000
     atom    2 type  1   force =     0.00000000    0.00000000   -0.00000000
     atom    3 type  1   force =     0.00000000    0.00000000    0.00000000
     atom    4 type  1   force =     0.00000000    0.00000000    0.00000000
     The core correction contribution to forces
     atom    1 type  1   force =    -0.00000000    0.00000000    0.00000000
     atom    2 type  1   force =     0.00000000    0.00000000    0.00000000
     atom    3 type  1   force =     0.00000000    0.00000000    0.00000000
     atom    4 type  1   force =    -0.00000000    0.00000000    0.00000000
     The Hubbard contrib.    to forces
     atom    1 type  1   force =     0.00000000    0.00000000    0.00000000
     atom    2 type  1   force =     0.00000000    0.00000000    0.00000000
     atom    3 type  1   force =     0.00000000    0.00000000    0.00000000
     atom    4 type  1   force =     0.00000000    0.00000000    0.00000000
     The SCF correction term to forces
     atom    1 type  1   force =     0.00000000    0.00000000    0.00000000
     atom    2 type  1   force =     0.00000000   -0.00000000    0.00000000
     atom    3 type  1   force =    -0.00000000    0.00000000   -0.00000000
     atom    4 type  1   force =     0.00000000   -0.00000000   -0.00000000

     Total force =     0.000000     Total SCF correction =     0.000000


     Computing stress (Cartesian axis) and pressure

          total   stress  (Ry/bohr**3)                   (kbar)     P=     -215.90
  -0.00146764   0.00000000   0.00000000         -215.90        0.00        0.00
   0.00000000  -0.00146764   0.00000000            0.00     -215.90        0.00
   0.00000000   0.00000000  -0.00146764            0.00        0.00     -215.90


     Writing all to output data dir /Users/vittoriodibona/Desktop/Tutorial_LAMMPS/Esame/CopperQE/tmp/Cu_ecut_30Ry_k6.save/

     init_run     :     33.84s CPU     23.79s WALL (       1 calls)
     electrons    :   1552.35s CPU    909.86s WALL (       1 calls)
     forces       :     65.19s CPU     34.72s WALL (       1 calls)
     stress       :     11.82s CPU      6.33s WALL (       1 calls)

     Called by init_run:
     wfcinit      :     22.67s CPU     17.13s WALL (       1 calls)
     potinit      :      0.17s CPU      0.26s WALL (       1 calls)
     hinit0       :      0.48s CPU      0.34s WALL (       1 calls)

     Called by electrons:
     c_bands      :   1339.27s CPU    787.34s WALL (      11 calls)
     sum_band     :     88.30s CPU     55.54s WALL (      11 calls)
     v_of_rho     :      0.51s CPU      0.24s WALL (      11 calls)
     newd         :    131.18s CPU     69.64s WALL (      11 calls)
     PAW_pot      :      2.31s CPU      2.25s WALL (      11 calls)
     mix_rho      :      0.45s CPU      0.31s WALL (      11 calls)

     Called by c_bands:
     init_us_2    :      0.25s CPU      0.25s WALL (     250 calls)
     init_us_2:cp :      0.24s CPU      0.25s WALL (     250 calls)
     cegterg      :   1325.09s CPU    777.87s WALL (     110 calls)

     Called by *egterg:
     cdiaghg      :    112.83s CPU     56.41s WALL (     418 calls)
     h_psi        :    430.61s CPU    261.65s WALL (     438 calls)
     s_psi        :     87.01s CPU     47.67s WALL (     438 calls)
     g_psi        :      0.05s CPU      0.03s WALL (     318 calls)

     Called by h_psi:
     h_psi:calbec :    247.27s CPU    163.99s WALL (     438 calls)
     vloc_psi     :     98.66s CPU     51.31s WALL (     438 calls)
     add_vuspsi   :     84.64s CPU     46.34s WALL (     438 calls)

     General routines
     calbec       :    355.52s CPU    228.43s WALL (     598 calls)
     fft          :      0.96s CPU      0.37s WALL (     167 calls)
     ffts         :      0.33s CPU      0.20s WALL (      22 calls)
     fftw         :    107.36s CPU     57.51s WALL (   19610 calls)
     interpolate  :      0.01s CPU      0.02s WALL (      11 calls)

     Parallel routines

     PWSCF        :  27m43.60s CPU  16m15.23s WALL


   This run was terminated on:  17:31:11  22Jan2026            

=------------------------------------------------------------------------------=
   JOB DONE.
=------------------------------------------------------------------------------=
