
     Program PWSCF v.7.2 starts on 22Jan2026 at 19:45:42 

     This program is part of the open-source Quantum ESPRESSO suite
     for quantum simulation of materials; please cite
         "P. Giannozzi et al., J. Phys.:Condens. Matter 21 395502 (2009);
         "P. Giannozzi et al., J. Phys.:Condens. Matter 29 465901 (2017);
         "P. Giannozzi et al., J. Chem. Phys. 152 154105 (2020);
          URL http://www.quantum-espresso.org", 
     in publications or presentations arising from this work. More details at
     http://www.quantum-espresso.org/quote

     Parallel version (MPI), running on     4 processors

     MPI processes distributed on     1 nodes
     0 MiB available memory on the printing compute node when the environment starts

     Reading input from /Users/vittoriodibona/Desktop/Tutorial_LAMMPS/Esame/CopperQE/1_convergence/ecut/Cu_ecut_80Ry_k6.in

     Current dimensions of program PWSCF are:
     Max number of different atomic species (ntypx) = 10
     Max number of k-points (npk) =  40000
     Max angular momentum in pseudopotentials (lmaxx) =  4
     file Cu.pbe-dn-kjpaw_psl.1.0.0.UPF: wavefunction(s)  4S 3D renormalized
     Found identity + ( -0.5000 -0.5000  0.0000) symmetry
     This is a supercell, fractional translations are disabled

     R & G space division:  proc/nbgrp/npool/nimage =       4
     Subspace diagonalization in iterative solution of the eigenvalue problem:
     a serial algorithm will be used


     Parallelization info
     --------------------
     sticks:   dense  smooth     PW     G-vecs:    dense   smooth      PW
     Min         741     298     85                30351     7709    1181
     Max         742     302     86                30354     7710    1184
     Sum        2965    1201    341               121409    30839    4729

     Using Slab Decomposition



     bravais-lattice index     =            1
     lattice parameter (alat)  =       6.8219  a.u.
     unit-cell volume          =     317.4813 (a.u.)^3
     number of atoms/cell      =            4
     number of atomic types    =            1
     number of electrons       =        44.00
     number of Kohn-Sham states=           26
     kinetic-energy cutoff     =      80.0000  Ry
     charge density cutoff     =     800.0000  Ry
     scf convergence threshold =      1.0E-08
     mixing beta               =       0.7000
     number of iterations used =            8  plain     mixing
     Exchange-correlation= SLA  PW   PBX  PBC
                           (   1   4   3   4   0   0   0)

     celldm(1)=   6.821911  celldm(2)=   0.000000  celldm(3)=   0.000000
     celldm(4)=   0.000000  celldm(5)=   0.000000  celldm(6)=   0.000000

     crystal axes: (cart. coord. in units of alat)
               a(1) = (   1.000000   0.000000   0.000000 )  
               a(2) = (   0.000000   1.000000   0.000000 )  
               a(3) = (   0.000000   0.000000   1.000000 )  

     reciprocal axes: (cart. coord. in units 2 pi/alat)
               b(1) = (  1.000000  0.000000  0.000000 )  
               b(2) = (  0.000000  1.000000  0.000000 )  
               b(3) = (  0.000000  0.000000  1.000000 )  


     PseudoPot. # 1 for Cu read from file:
     /Users/vittoriodibona/Desktop/Tutorial_LAMMPS/Esame/CopperQE/pseudo/Cu.pbe-dn-kjpaw_psl.1.0.0.UPF
     MD5 check sum: cfffd1f38ee05704b3e17f46f1730a6f
     Pseudo is Projector augmented-wave + core cor, Zval = 11.0
     Generated using &quot;atomic&quot; code by A. Dal Corso  v.6.3
     Shape of augmentation charge: PSQ
     Using radial grid of 1199 points,  6 beta functions with: 
                l(1) =   0
                l(2) =   0
                l(3) =   1
                l(4) =   1
                l(5) =   2
                l(6) =   2
     Q(r) pseudized with 0 coefficients 


     atomic species   valence    mass     pseudopotential
        Cu            11.00    63.54600     Cu( 1.00)

     48 Sym. Ops., with inversion, found



   Cartesian axes

     site n.     atom                  positions (alat units)
         1           Cu  tau(   1) = (   0.0000000   0.0000000   0.0000000  )
         2           Cu  tau(   2) = (   0.5000000   0.5000000   0.0000000  )
         3           Cu  tau(   3) = (   0.5000000   0.0000000   0.5000000  )
         4           Cu  tau(   4) = (   0.0000000   0.5000000   0.5000000  )

     number of k points=    10  Marzari-Vanderbilt smearing, width (Ry)=  0.0200
                       cart. coord. in units 2pi/alat
        k(    1) = (   0.0833333   0.0833333   0.0833333), wk =   0.0740741
        k(    2) = (   0.0833333   0.0833333   0.2500000), wk =   0.2222222
        k(    3) = (   0.0833333   0.0833333   0.4166667), wk =   0.2222222
        k(    4) = (   0.0833333   0.2500000   0.2500000), wk =   0.2222222
        k(    5) = (   0.0833333   0.2500000   0.4166667), wk =   0.4444444
        k(    6) = (   0.0833333   0.4166667   0.4166667), wk =   0.2222222
        k(    7) = (   0.2500000   0.2500000   0.2500000), wk =   0.0740741
        k(    8) = (   0.2500000   0.2500000   0.4166667), wk =   0.2222222
        k(    9) = (   0.2500000   0.4166667   0.4166667), wk =   0.2222222
        k(   10) = (   0.4166667   0.4166667   0.4166667), wk =   0.0740741

     Dense  grid:   121409 G-vectors     FFT dimensions: (  64,  64,  64)

     Smooth grid:    30839 G-vectors     FFT dimensions: (  40,  40,  40)

     Estimated max dynamical RAM per process >     117.55 MB

     Estimated total dynamical RAM >     470.19 MB

     Initial potential from superposition of free atoms

     starting charge      43.9991, renormalised to      44.0000
     Starting wfcs are   36 randomized atomic wfcs
     Checking if some PAW data can be deallocated... 

     total cpu time spent up to now is       54.8 secs

     Self-consistent Calculation

     iteration #  1     ecut=    80.00 Ry     beta= 0.70
     Davidson diagonalization with overlap
     ethr =  1.00E-02,  avg # of iterations =  2.6

     Threshold (ethr) on eigenvalues was too large:
     Diagonalizing with lowered threshold

     Davidson diagonalization with overlap
     ethr =  3.98E-04,  avg # of iterations =  2.6

     total cpu time spent up to now is      312.3 secs

     total energy              =    -852.24718269 Ry
     estimated scf accuracy    <       0.23706872 Ry

     iteration #  2     ecut=    80.00 Ry     beta= 0.70
     Davidson diagonalization with overlap
     ethr =  5.39E-04,  avg # of iterations =  3.0

     total cpu time spent up to now is      472.9 secs

     total energy              =    -852.26018189 Ry
     estimated scf accuracy    <       0.79880523 Ry

     iteration #  3     ecut=    80.00 Ry     beta= 0.70
     Davidson diagonalization with overlap
     ethr =  5.39E-04,  avg # of iterations =  2.1

     total cpu time spent up to now is      621.3 secs

     total energy              =    -852.38418962 Ry
     estimated scf accuracy    <       0.00075198 Ry

     iteration #  4     ecut=    80.00 Ry     beta= 0.70
     Davidson diagonalization with overlap
     ethr =  1.71E-06,  avg # of iterations =  6.2

     total cpu time spent up to now is      879.2 secs

     total energy              =    -852.38547918 Ry
     estimated scf accuracy    <       0.00124250 Ry

     iteration #  5     ecut=    80.00 Ry     beta= 0.70
     Davidson diagonalization with overlap
     ethr =  1.71E-06,  avg # of iterations =  1.0

     total cpu time spent up to now is      986.6 secs

     total energy              =    -852.38525408 Ry
     estimated scf accuracy    <       0.00070981 Ry

     iteration #  6     ecut=    80.00 Ry     beta= 0.70
     Davidson diagonalization with overlap
     ethr =  1.61E-06,  avg # of iterations =  2.0

     total cpu time spent up to now is     1120.8 secs

     total energy              =    -852.38535753 Ry
     estimated scf accuracy    <       0.00000167 Ry

     iteration #  7     ecut=    80.00 Ry     beta= 0.70
     Davidson diagonalization with overlap
     ethr =  3.79E-09,  avg # of iterations =  4.8

     total cpu time spent up to now is     1327.2 secs

     total energy              =    -852.38535945 Ry
     estimated scf accuracy    <       0.00000009 Ry

     iteration #  8     ecut=    80.00 Ry     beta= 0.70
     Davidson diagonalization with overlap
     ethr =  2.03E-10,  avg # of iterations =  3.2

     total cpu time spent up to now is     1497.6 secs

     total energy              =    -852.38535926 Ry
     estimated scf accuracy    <       0.00000092 Ry

     iteration #  9     ecut=    80.00 Ry     beta= 0.70
     Davidson diagonalization with overlap
     ethr =  2.03E-10,  avg # of iterations =  3.2

     total cpu time spent up to now is     1664.5 secs

     total energy              =    -852.38535943 Ry
     estimated scf accuracy    <       0.00000001 Ry

     iteration # 10     ecut=    80.00 Ry     beta= 0.70
     Davidson diagonalization with overlap
     ethr =  2.39E-11,  avg # of iterations =  2.0

     total cpu time spent up to now is     1790.4 secs

     End of self-consistent calculation

          k = 0.0833 0.0833 0.0833 (  3833 PWs)   bands (ev):

     3.5544   7.8982   7.8982   7.8982   8.3563   8.3563   8.3563   9.6502
     9.7505   9.7505  10.5218  10.5218  10.9433  10.9433  10.9433  11.0138
    11.0138  11.0138  11.2216  11.2216  11.2216  14.1081  14.1081  14.1081
    20.6258  20.6258

          k = 0.0833 0.0833 0.2500 (  3844 PWs)   bands (ev):

     4.2141   7.7883   8.1836   8.1836   8.5247   8.5386   8.5386   9.4810
     9.8792   9.8847  10.2178  10.2178  10.3758  10.5273  10.6118  10.8127
    10.8197  10.8197  11.1109  11.2018  11.2018  12.0164  15.3441  15.3441
    20.9588  20.9588

          k = 0.0833 0.0833 0.4167 (  3838 PWs)   bands (ev):

     5.4525   6.9456   8.5566   8.5566   8.8217   8.8918   8.8918   9.1721
     9.4739   9.4739   9.9632   9.9686  10.1411  10.3721  10.4797  10.5444
    10.5444  10.7670  10.8576  10.9473  11.1942  11.1942  17.0714  17.0714
    19.1802  19.1802

          k = 0.0833 0.2500 0.2500 (  3836 PWs)   bands (ev):

     4.8459   8.1239   8.1239   8.4062   8.6616   8.6840   8.6840   9.4177
     9.8420   9.8420   9.8765   9.9253   9.9339  10.3768  10.6207  10.6771
    10.6771  10.6968  11.0654  11.0654  11.0891  13.0411  13.0411  16.2759
    18.6475  21.4409

          k = 0.0833 0.2500 0.4167 (  3841 PWs)   bands (ev):

     6.0156   7.3844   8.5842   8.7099   8.8260   8.9387   8.9473   9.2141
     9.3060   9.4807   9.6267   9.7944  10.0987  10.3709  10.4231  10.4462
    10.4700  10.8028  10.9929  11.0002  11.0075  11.5659  14.3937  16.1017
    18.0446  19.9619

          k = 0.0833 0.4167 0.4167 (  3828 PWs)   bands (ev):

     7.0000   8.0241   8.0241   8.4804   9.1360   9.1658   9.1658   9.2377
     9.3789   9.3789   9.4042   9.6520  10.0783  10.2368  10.2403  10.2403
    10.4550  10.7108  10.7109  10.7969  11.5208  12.4863  12.4863  13.9139
    19.4348  21.3587

          k = 0.2500 0.2500 0.2500 (  3836 PWs)   bands (ev):

     5.4296   8.2671   8.2671   8.2671   8.8473   8.8473   8.8473   9.4428
     9.7190   9.7190   9.7190   9.8619   9.8619  10.3513  10.3513  10.3513
    10.6235  10.6235  11.1573  11.1573  11.1573  13.6671  13.6671  13.6671
    19.4485  19.4485

          k = 0.2500 0.2500 0.4167 (  3848 PWs)   bands (ev):

     6.4720   7.6062   8.3753   8.3753   9.0700   9.0700   9.1672   9.3880
     9.6193   9.6193   9.6200   9.7670   9.8995  10.0755  10.1856  10.1856
    10.8087  10.8972  11.0801  11.0801  11.0952  11.7446  14.5905  14.5905
    17.3772  17.3772

          k = 0.2500 0.4167 0.4167 (  3839 PWs)   bands (ev):

     7.1887   7.8621   7.8621   8.1026   9.3401   9.4402   9.4402   9.6970
     9.7034   9.7410   9.7410   9.8210   9.8607   9.9481   9.9481   9.9629
    10.7917  11.0076  11.0076  11.0175  11.3428  12.4710  12.4710  13.7193
    17.0605  18.5395

          k = 0.4167 0.4167 0.4167 (  3837 PWs)   bands (ev):

     7.4415   7.7355   7.7355   7.7355   9.5812   9.5812   9.5812   9.7026
     9.7026   9.7556   9.7556   9.7556  10.4134  10.4134  10.4134  10.7164
    11.0394  11.0394  11.1214  11.1214  11.1214  12.4252  12.4252  12.4252
    16.7900  16.7900

     the Fermi energy is    12.6154 ev

!    total energy              =    -852.38535943 Ry
     total all-electron energy =    -13239.904424 Ry
     estimated scf accuracy    <          1.1E-10 Ry
     smearing contrib. (-TS)   =      -0.00115653 Ry
     internal energy E=F+TS    =    -852.38420290 Ry

     The total energy is F=E-TS. E is the sum of the following terms:
     one-electron contribution =    -111.40733262 Ry
     hartree contribution      =     122.20975240 Ry
     xc contribution           =    -178.51180015 Ry
     ewald contribution        =    -325.28617016 Ry
     one-center paw contrib.   =    -359.38865238 Ry

     convergence has been achieved in  10 iterations

     Forces acting on atoms (cartesian axes, Ry/au):

     atom    1 type  1   force =     0.00000000    0.00000000    0.00000000
     atom    2 type  1   force =     0.00000000    0.00000000    0.00000000
     atom    3 type  1   force =     0.00000000    0.00000000    0.00000000
     atom    4 type  1   force =     0.00000000    0.00000000    0.00000000
     The non-local contrib.  to forces
     atom    1 type  1   force =     0.00000000    0.00000000    0.00000000
     atom    2 type  1   force =     0.00000000    0.00000000    0.00000000
     atom    3 type  1   force =     0.00000000    0.00000000    0.00000000
     atom    4 type  1   force =     0.00000000    0.00000000    0.00000000
     The ionic contribution  to forces
     atom    1 type  1   force =    -0.00000000   -0.00000000   -0.00000000
     atom    2 type  1   force =     0.00000000    0.00000000   -0.00000000
     atom    3 type  1   force =     0.00000000   -0.00000000    0.00000000
     atom    4 type  1   force =    -0.00000000    0.00000000    0.00000000
     The local contribution  to forces
     atom    1 type  1   force =    -0.00000000    0.00000000    0.00000000
     atom    2 type  1   force =     0.00000000    0.00000000    0.00000000
     atom    3 type  1   force =     0.00000000    0.00000000    0.00000000
     atom    4 type  1   force =    -0.00000000    0.00000000    0.00000000
     The core correction contribution to forces
     atom    1 type  1   force =    -0.00000000    0.00000000   -0.00000000
     atom    2 type  1   force =     0.00000000    0.00000000   -0.00000000
     atom    3 type  1   force =     0.00000000   -0.00000000    0.00000000
     atom    4 type  1   force =    -0.00000000    0.00000000    0.00000000
     The Hubbard contrib.    to forces
     atom    1 type  1   force =     0.00000000    0.00000000    0.00000000
     atom    2 type  1   force =     0.00000000    0.00000000    0.00000000
     atom    3 type  1   force =     0.00000000    0.00000000    0.00000000
     atom    4 type  1   force =     0.00000000    0.00000000    0.00000000
     The SCF correction term to forces
     atom    1 type  1   force =    -0.00000000   -0.00000000   -0.00000000
     atom    2 type  1   force =    -0.00000000   -0.00000000   -0.00000000
     atom    3 type  1   force =     0.00000000    0.00000000   -0.00000000
     atom    4 type  1   force =    -0.00000000   -0.00000000   -0.00000000

     Total force =     0.000000     Total SCF correction =     0.000000


     Computing stress (Cartesian axis) and pressure

          total   stress  (Ry/bohr**3)                   (kbar)     P=       21.58
   0.00014672   0.00000000   0.00000000           21.58        0.00        0.00
   0.00000000   0.00014672   0.00000000            0.00       21.58        0.00
   0.00000000   0.00000000   0.00014672            0.00        0.00       21.58


     Writing all to output data dir /Users/vittoriodibona/Desktop/Tutorial_LAMMPS/Esame/CopperQE/tmp/Cu_ecut_80Ry_k6.save/

     init_run     :    114.07s CPU     54.47s WALL (       1 calls)
     electrons    :   3308.18s CPU   1735.69s WALL (       1 calls)
     forces       :    227.22s CPU    115.99s WALL (       1 calls)
     stress       :     22.77s CPU     12.77s WALL (       1 calls)

     Called by init_run:
     wfcinit      :     64.98s CPU     34.38s WALL (       1 calls)
     potinit      :      0.24s CPU      0.30s WALL (       1 calls)
     hinit0       :      0.32s CPU      0.31s WALL (       1 calls)

     Called by electrons:
     c_bands      :   2571.37s CPU   1351.71s WALL (      11 calls)
     sum_band     :    217.91s CPU    115.19s WALL (      11 calls)
     v_of_rho     :      0.93s CPU      0.58s WALL (      11 calls)
     newd         :    563.19s CPU    284.73s WALL (      11 calls)
     PAW_pot      :      2.19s CPU      2.28s WALL (      11 calls)
     mix_rho      :      0.39s CPU      0.21s WALL (      11 calls)

     Called by c_bands:
     init_us_2    :      0.51s CPU      0.30s WALL (     250 calls)
     init_us_2:cp :      0.51s CPU      0.29s WALL (     250 calls)
     cegterg      :   2552.73s CPU   1340.72s WALL (     110 calls)

     Called by *egterg:
     cdiaghg      :    127.55s CPU     58.38s WALL (     427 calls)
     h_psi        :    943.07s CPU    496.80s WALL (     447 calls)
     s_psi        :     94.10s CPU     49.15s WALL (     447 calls)
     g_psi        :      0.05s CPU      0.02s WALL (     327 calls)

     Called by h_psi:
     h_psi:calbec :    691.82s CPU    382.50s WALL (     447 calls)
     vloc_psi     :    155.69s CPU     64.68s WALL (     447 calls)
     add_vuspsi   :     95.38s CPU     49.54s WALL (     447 calls)

     General routines
     calbec       :    962.39s CPU    524.86s WALL (     607 calls)
     fft          :      0.96s CPU      0.56s WALL (     167 calls)
     ffts         :      0.68s CPU      0.36s WALL (      22 calls)
     fftw         :    173.53s CPU     73.62s WALL (   19394 calls)
     interpolate  :      0.03s CPU      0.03s WALL (      11 calls)

     Parallel routines

     PWSCF        :      1h 1m CPU  31m59.57s WALL


   This run was terminated on:  20:17:41  22Jan2026            

=------------------------------------------------------------------------------=
   JOB DONE.
=------------------------------------------------------------------------------=
