
     Program PWSCF v.7.2 starts on 22Jan2026 at 17: 2:16 

     This program is part of the open-source Quantum ESPRESSO suite
     for quantum simulation of materials; please cite
         "P. Giannozzi et al., J. Phys.:Condens. Matter 21 395502 (2009);
         "P. Giannozzi et al., J. Phys.:Condens. Matter 29 465901 (2017);
         "P. Giannozzi et al., J. Chem. Phys. 152 154105 (2020);
          URL http://www.quantum-espresso.org", 
     in publications or presentations arising from this work. More details at
     http://www.quantum-espresso.org/quote

     Parallel version (MPI), running on     4 processors

     MPI processes distributed on     1 nodes
     0 MiB available memory on the printing compute node when the environment starts

     Reading input from /Users/vittoriodibona/Desktop/Tutorial_LAMMPS/Esame/CopperQE/1_convergence/ecut/Cu_ecut_25Ry_k6.in

     Current dimensions of program PWSCF are:
     Max number of different atomic species (ntypx) = 10
     Max number of k-points (npk) =  40000
     Max angular momentum in pseudopotentials (lmaxx) =  4
     file Cu.pbe-dn-kjpaw_psl.1.0.0.UPF: wavefunction(s)  4S 3D renormalized
     Found identity + ( -0.5000 -0.5000  0.0000) symmetry
     This is a supercell, fractional translations are disabled

     R & G space division:  proc/nbgrp/npool/nimage =       4
     Subspace diagonalization in iterative solution of the eigenvalue problem:
     a serial algorithm will be used


     Parallelization info
     --------------------
     sticks:   dense  smooth     PW     G-vecs:    dense   smooth      PW
     Min         232      92     29                 5310     1344     237
     Max         234      94     31                 5313     1345     238
     Sum         933     373    121                21247     5377     949

     Using Slab Decomposition



     bravais-lattice index     =            1
     lattice parameter (alat)  =       6.8219  a.u.
     unit-cell volume          =     317.4813 (a.u.)^3
     number of atoms/cell      =            4
     number of atomic types    =            1
     number of electrons       =        44.00
     number of Kohn-Sham states=           26
     kinetic-energy cutoff     =      25.0000  Ry
     charge density cutoff     =     250.0000  Ry
     scf convergence threshold =      1.0E-08
     mixing beta               =       0.7000
     number of iterations used =            8  plain     mixing
     Exchange-correlation= SLA  PW   PBX  PBC
                           (   1   4   3   4   0   0   0)

     celldm(1)=   6.821911  celldm(2)=   0.000000  celldm(3)=   0.000000
     celldm(4)=   0.000000  celldm(5)=   0.000000  celldm(6)=   0.000000

     crystal axes: (cart. coord. in units of alat)
               a(1) = (   1.000000   0.000000   0.000000 )  
               a(2) = (   0.000000   1.000000   0.000000 )  
               a(3) = (   0.000000   0.000000   1.000000 )  

     reciprocal axes: (cart. coord. in units 2 pi/alat)
               b(1) = (  1.000000  0.000000  0.000000 )  
               b(2) = (  0.000000  1.000000  0.000000 )  
               b(3) = (  0.000000  0.000000  1.000000 )  


     PseudoPot. # 1 for Cu read from file:
     /Users/vittoriodibona/Desktop/Tutorial_LAMMPS/Esame/CopperQE/pseudo/Cu.pbe-dn-kjpaw_psl.1.0.0.UPF
     MD5 check sum: cfffd1f38ee05704b3e17f46f1730a6f
     Pseudo is Projector augmented-wave + core cor, Zval = 11.0
     Generated using &quot;atomic&quot; code by A. Dal Corso  v.6.3
     Shape of augmentation charge: PSQ
     Using radial grid of 1199 points,  6 beta functions with: 
                l(1) =   0
                l(2) =   0
                l(3) =   1
                l(4) =   1
                l(5) =   2
                l(6) =   2
     Q(r) pseudized with 0 coefficients 


     atomic species   valence    mass     pseudopotential
        Cu            11.00    63.54600     Cu( 1.00)

     48 Sym. Ops., with inversion, found



   Cartesian axes

     site n.     atom                  positions (alat units)
         1           Cu  tau(   1) = (   0.0000000   0.0000000   0.0000000  )
         2           Cu  tau(   2) = (   0.5000000   0.5000000   0.0000000  )
         3           Cu  tau(   3) = (   0.5000000   0.0000000   0.5000000  )
         4           Cu  tau(   4) = (   0.0000000   0.5000000   0.5000000  )

     number of k points=    10  Marzari-Vanderbilt smearing, width (Ry)=  0.0200
                       cart. coord. in units 2pi/alat
        k(    1) = (   0.0833333   0.0833333   0.0833333), wk =   0.0740741
        k(    2) = (   0.0833333   0.0833333   0.2500000), wk =   0.2222222
        k(    3) = (   0.0833333   0.0833333   0.4166667), wk =   0.2222222
        k(    4) = (   0.0833333   0.2500000   0.2500000), wk =   0.2222222
        k(    5) = (   0.0833333   0.2500000   0.4166667), wk =   0.4444444
        k(    6) = (   0.0833333   0.4166667   0.4166667), wk =   0.2222222
        k(    7) = (   0.2500000   0.2500000   0.2500000), wk =   0.0740741
        k(    8) = (   0.2500000   0.2500000   0.4166667), wk =   0.2222222
        k(    9) = (   0.2500000   0.4166667   0.4166667), wk =   0.2222222
        k(   10) = (   0.4166667   0.4166667   0.4166667), wk =   0.0740741

     Dense  grid:    21247 G-vectors     FFT dimensions: (  36,  36,  36)

     Smooth grid:     5377 G-vectors     FFT dimensions: (  24,  24,  24)

     Estimated max dynamical RAM per process >      21.46 MB

     Estimated total dynamical RAM >      85.83 MB

     Initial potential from superposition of free atoms

     starting charge      43.9991, renormalised to      44.0000
     Starting wfcs are   36 randomized atomic wfcs
     Checking if some PAW data can be deallocated... 

     total cpu time spent up to now is       24.6 secs

     Self-consistent Calculation

     iteration #  1     ecut=    25.00 Ry     beta= 0.70
     Davidson diagonalization with overlap
     ethr =  1.00E-02,  avg # of iterations =  2.3

     total cpu time spent up to now is       86.9 secs

     total energy              =    -851.59800184 Ry
     estimated scf accuracy    <       0.50337261 Ry

     iteration #  2     ecut=    25.00 Ry     beta= 0.70
     Davidson diagonalization with overlap
     ethr =  1.14E-03,  avg # of iterations =  2.7

     total cpu time spent up to now is      160.9 secs

     total energy              =    -851.71695251 Ry
     estimated scf accuracy    <       1.12755754 Ry

     iteration #  3     ecut=    25.00 Ry     beta= 0.70
     Davidson diagonalization with overlap
     ethr =  1.14E-03,  avg # of iterations =  2.1

     total cpu time spent up to now is      229.5 secs

     total energy              =    -851.89831709 Ry
     estimated scf accuracy    <       0.00230393 Ry

     iteration #  4     ecut=    25.00 Ry     beta= 0.70
     Davidson diagonalization with overlap
     ethr =  5.24E-06,  avg # of iterations =  6.3

     total cpu time spent up to now is      353.0 secs

     total energy              =    -851.90102008 Ry
     estimated scf accuracy    <       0.00374219 Ry

     iteration #  5     ecut=    25.00 Ry     beta= 0.70
     Davidson diagonalization with overlap
     ethr =  5.24E-06,  avg # of iterations =  1.2

     total cpu time spent up to now is      395.0 secs

     total energy              =    -851.90099358 Ry
     estimated scf accuracy    <       0.00100840 Ry

     iteration #  6     ecut=    25.00 Ry     beta= 0.70
     Davidson diagonalization with overlap
     ethr =  2.29E-06,  avg # of iterations =  1.1

     total cpu time spent up to now is      433.5 secs

     total energy              =    -851.90096924 Ry
     estimated scf accuracy    <       0.00022026 Ry

     iteration #  7     ecut=    25.00 Ry     beta= 0.70
     Davidson diagonalization with overlap
     ethr =  5.01E-07,  avg # of iterations =  2.2

     total cpu time spent up to now is      490.7 secs

     total energy              =    -851.90100451 Ry
     estimated scf accuracy    <       0.00000087 Ry

     iteration #  8     ecut=    25.00 Ry     beta= 0.70
     Davidson diagonalization with overlap
     ethr =  1.97E-09,  avg # of iterations =  5.3

     total cpu time spent up to now is      616.6 secs

     total energy              =    -851.90100614 Ry
     estimated scf accuracy    <       0.00000047 Ry

     iteration #  9     ecut=    25.00 Ry     beta= 0.70
     Davidson diagonalization with overlap
     ethr =  1.06E-09,  avg # of iterations =  1.0

     total cpu time spent up to now is      660.9 secs

     total energy              =    -851.90100612 Ry
     estimated scf accuracy    <       0.00000011 Ry

     iteration # 10     ecut=    25.00 Ry     beta= 0.70
     Davidson diagonalization with overlap
     ethr =  2.45E-10,  avg # of iterations =  2.2

     total cpu time spent up to now is      725.2 secs

     End of self-consistent calculation

          k = 0.0833 0.0833 0.0833 (   679 PWs)   bands (ev):

     3.6122   7.6741   7.6741   7.6741   8.0920   8.0920   8.0920   9.3088
     9.4040   9.4040  10.1210  10.1210  10.6686  10.6686  10.6686  10.6838
    10.6838  10.6838  10.9039  10.9039  10.9039  14.1291  14.1291  14.1291
    20.7498  20.7498

          k = 0.0833 0.0833 0.2500 (   675 PWs)   bands (ev):

     4.2699   7.6143   7.9381   7.9381   8.2638   8.2894   8.2894   9.1681
     9.5440   9.5474   9.9306   9.9306  10.0739  10.2060  10.3111  10.4645
    10.4645  10.4703  10.8812  10.8891  10.8891  11.9128  15.3374  15.3374
    21.0761  21.0761

          k = 0.0833 0.0833 0.4167 (   665 PWs)   bands (ev):

     5.4971   6.9205   8.3221   8.3221   8.5488   8.6486   8.6486   8.8798
     9.2142   9.2142   9.6735   9.7351   9.8685  10.0929  10.1606  10.2643
    10.2643  10.3877  10.5938  10.6189  10.9008  10.9008  17.0962  17.0962
    19.2570  19.2570

          k = 0.0833 0.2500 0.2500 (   682 PWs)   bands (ev):

     4.8975   7.9275   7.9275   8.1313   8.4005   8.4297   8.4297   9.1340
     9.5452   9.5803   9.5803   9.5902   9.6479  10.0549  10.2590  10.3270
    10.3270  10.3677  10.7397  10.7413  10.7413  12.9317  12.9317  16.2643
    18.7012  21.5313

          k = 0.0833 0.2500 0.4167 (   669 PWs)   bands (ev):

     6.0490   7.3383   8.3691   8.4440   8.5737   8.6890   8.7198   8.9512
     9.0515   9.2221   9.3539   9.4942   9.7925  10.0690  10.1144  10.1490
    10.1858  10.5265  10.6290  10.6867  10.6996  11.3226  14.3325  16.0857
    18.0879  20.0834

          k = 0.0833 0.4167 0.4167 (   666 PWs)   bands (ev):

     6.9929   7.9175   7.9175   8.2739   8.8716   8.9456   8.9456   9.0129
     9.0948   9.0948   9.1409   9.3539   9.8096   9.9411   9.9561   9.9561
    10.1642  10.4043  10.4043  10.4474  11.2246  12.2958  12.2958  13.8132
    19.5137  21.5044

          k = 0.2500 0.2500 0.2500 (   675 PWs)   bands (ev):

     5.4711   8.0473   8.0473   8.0473   8.6143   8.6143   8.6143   9.1909
     9.4442   9.4442   9.4442   9.5377   9.5377  10.0007  10.0007  10.0007
    10.3624  10.3624  10.8281  10.8281  10.8281  13.5784  13.5784  13.5784
    19.5397  19.5397

          k = 0.2500 0.2500 0.4167 (   665 PWs)   bands (ev):

     6.4789   7.5083   8.1419   8.1419   8.8171   8.8171   8.9475   9.1741
     9.3402   9.3550   9.3550   9.4829   9.5883   9.7683   9.8869   9.8869
    10.5310  10.6590  10.7885  10.7885  10.7967  11.5176  14.5495  14.5495
    17.4009  17.4009

          k = 0.2500 0.4167 0.4167 (   663 PWs)   bands (ev):

     7.1162   7.6891   7.6891   7.8845   9.0737   9.1754   9.1754   9.3987
     9.5130   9.5130   9.5315   9.5479   9.6227   9.6812   9.6812   9.7033
    10.4874  10.6985  10.6985  10.7099  11.0714  12.3348  12.3348  13.6630
    17.0770  18.5952

          k = 0.4167 0.4167 0.4167 (   663 PWs)   bands (ev):

     7.2848   7.5305   7.5305   7.5305   9.2954   9.2954   9.2954   9.4280
     9.4280   9.4768   9.4768   9.4768  10.1822  10.1822  10.1822  10.6752
    10.7777  10.7777  10.7777  10.7853  10.7853  12.3610  12.3610  12.3610
    16.7864  16.7864

     the Fermi energy is    12.4713 ev

!    total energy              =    -851.90100614 Ry
     total all-electron energy =    -13239.420070 Ry
     estimated scf accuracy    <          2.4E-09 Ry
     smearing contrib. (-TS)   =      -0.00104139 Ry
     internal energy E=F+TS    =    -851.89996475 Ry

     The total energy is F=E-TS. E is the sum of the following terms:
     one-electron contribution =    -110.12203826 Ry
     hartree contribution      =     120.74553249 Ry
     xc contribution           =    -177.99948155 Ry
     ewald contribution        =    -325.28617018 Ry
     one-center paw contrib.   =    -359.23780724 Ry

     convergence has been achieved in  10 iterations

     Forces acting on atoms (cartesian axes, Ry/au):

     atom    1 type  1   force =     0.00000000    0.00000000    0.00000000
     atom    2 type  1   force =     0.00000000    0.00000000    0.00000000
     atom    3 type  1   force =     0.00000000    0.00000000    0.00000000
     atom    4 type  1   force =     0.00000000    0.00000000    0.00000000
     The non-local contrib.  to forces
     atom    1 type  1   force =     0.00000000    0.00000000    0.00000000
     atom    2 type  1   force =     0.00000000    0.00000000    0.00000000
     atom    3 type  1   force =     0.00000000    0.00000000    0.00000000
     atom    4 type  1   force =     0.00000000    0.00000000    0.00000000
     The ionic contribution  to forces
     atom    1 type  1   force =    -0.00000000   -0.00000000   -0.00000000
     atom    2 type  1   force =     0.00000000    0.00000000   -0.00000000
     atom    3 type  1   force =     0.00000000   -0.00000000    0.00000000
     atom    4 type  1   force =    -0.00000000    0.00000000    0.00000000
     The local contribution  to forces
     atom    1 type  1   force =     0.00000000    0.00000000   -0.00000000
     atom    2 type  1   force =     0.00000000    0.00000000   -0.00000000
     atom    3 type  1   force =     0.00000000    0.00000000    0.00000000
     atom    4 type  1   force =     0.00000000    0.00000000    0.00000000
     The core correction contribution to forces
     atom    1 type  1   force =     0.00000000    0.00000000    0.00000000
     atom    2 type  1   force =     0.00000000    0.00000000    0.00000000
     atom    3 type  1   force =     0.00000000    0.00000000    0.00000000
     atom    4 type  1   force =     0.00000000    0.00000000    0.00000000
     The Hubbard contrib.    to forces
     atom    1 type  1   force =     0.00000000    0.00000000    0.00000000
     atom    2 type  1   force =     0.00000000    0.00000000    0.00000000
     atom    3 type  1   force =     0.00000000    0.00000000    0.00000000
     atom    4 type  1   force =     0.00000000    0.00000000    0.00000000
     The SCF correction term to forces
     atom    1 type  1   force =    -0.00000000    0.00000000    0.00000000
     atom    2 type  1   force =     0.00000000    0.00000000    0.00000000
     atom    3 type  1   force =     0.00000000    0.00000000    0.00000000
     atom    4 type  1   force =     0.00000000    0.00000000    0.00000000

     Total force =     0.000000     Total SCF correction =     0.000000


     Computing stress (Cartesian axis) and pressure

          total   stress  (Ry/bohr**3)                   (kbar)     P=    -1368.92
  -0.00930576   0.00000000   0.00000000        -1368.92        0.00        0.00
   0.00000000  -0.00930576   0.00000000            0.00    -1368.92        0.00
   0.00000000   0.00000000  -0.00930576            0.00        0.00    -1368.92


     Writing all to output data dir /Users/vittoriodibona/Desktop/Tutorial_LAMMPS/Esame/CopperQE/tmp/Cu_ecut_25Ry_k6.save/

     init_run     :     44.24s CPU     24.39s WALL (       1 calls)
     electrons    :   1064.95s CPU    700.66s WALL (       1 calls)
     forces       :     46.17s CPU     28.17s WALL (       1 calls)
     stress       :      9.43s CPU      6.53s WALL (       1 calls)

     Called by init_run:
     wfcinit      :     33.54s CPU     18.60s WALL (       1 calls)
     potinit      :      0.09s CPU      0.10s WALL (       1 calls)
     hinit0       :      0.46s CPU      0.29s WALL (       1 calls)

     Called by electrons:
     c_bands      :    924.68s CPU    608.03s WALL (      10 calls)
     sum_band     :     66.95s CPU     47.46s WALL (      10 calls)
     v_of_rho     :      0.43s CPU      0.37s WALL (      11 calls)
     newd         :     79.35s CPU     46.17s WALL (      11 calls)
     PAW_pot      :      2.24s CPU      2.71s WALL (      11 calls)
     mix_rho      :      0.20s CPU      0.29s WALL (      10 calls)

     Called by c_bands:
     init_us_2    :      0.14s CPU      0.12s WALL (     230 calls)
     init_us_2:cp :      0.13s CPU      0.12s WALL (     230 calls)
     cegterg      :    914.17s CPU    599.71s WALL (     100 calls)

     Called by *egterg:
     cdiaghg      :     84.37s CPU     48.54s WALL (     364 calls)
     h_psi        :    301.82s CPU    204.94s WALL (     374 calls)
     s_psi        :     63.60s CPU     36.62s WALL (     374 calls)
     g_psi        :      0.02s CPU      0.00s WALL (     264 calls)

     Called by h_psi:
     h_psi:calbec :    166.51s CPU    123.66s WALL (     374 calls)
     vloc_psi     :     73.16s CPU     44.96s WALL (     374 calls)
     add_vuspsi   :     62.11s CPU     36.29s WALL (     374 calls)

     General routines
     calbec       :    245.37s CPU    177.53s WALL (     524 calls)
     fft          :      0.44s CPU      0.46s WALL (     166 calls)
     ffts         :      0.49s CPU      0.43s WALL (      21 calls)
     fftw         :     83.53s CPU     52.77s WALL (   17164 calls)
     interpolate  :      0.01s CPU      0.03s WALL (      11 calls)

     Parallel routines

     PWSCF        :  19m25.21s CPU  12m40.15s WALL


   This run was terminated on:  17:14:56  22Jan2026            

=------------------------------------------------------------------------------=
   JOB DONE.
=------------------------------------------------------------------------------=
