
     Program PWSCF v.7.2 starts on 22Jan2026 at 18:55:58 

     This program is part of the open-source Quantum ESPRESSO suite
     for quantum simulation of materials; please cite
         "P. Giannozzi et al., J. Phys.:Condens. Matter 21 395502 (2009);
         "P. Giannozzi et al., J. Phys.:Condens. Matter 29 465901 (2017);
         "P. Giannozzi et al., J. Chem. Phys. 152 154105 (2020);
          URL http://www.quantum-espresso.org", 
     in publications or presentations arising from this work. More details at
     http://www.quantum-espresso.org/quote

     Parallel version (MPI), running on     4 processors

     MPI processes distributed on     1 nodes
     0 MiB available memory on the printing compute node when the environment starts

     Reading input from /Users/vittoriodibona/Desktop/Tutorial_LAMMPS/Esame/CopperQE/1_convergence/ecut/Cu_ecut_60Ry_k6.in

     Current dimensions of program PWSCF are:
     Max number of different atomic species (ntypx) = 10
     Max number of k-points (npk) =  40000
     Max angular momentum in pseudopotentials (lmaxx) =  4
     file Cu.pbe-dn-kjpaw_psl.1.0.0.UPF: wavefunction(s)  4S 3D renormalized
     Found identity + ( -0.5000 -0.5000  0.0000) symmetry
     This is a supercell, fractional translations are disabled

     R & G space division:  proc/nbgrp/npool/nimage =       4
     Subspace diagonalization in iterative solution of the eigenvalue problem:
     a serial algorithm will be used


     Parallelization info
     --------------------
     sticks:   dense  smooth     PW     G-vecs:    dense   smooth      PW
     Min         556     221     65                19736     4983     797
     Max         557     222     66                19739     4984     799
     Sum        2225     885    261                78949    19933    3191

     Using Slab Decomposition



     bravais-lattice index     =            1
     lattice parameter (alat)  =       6.8219  a.u.
     unit-cell volume          =     317.4813 (a.u.)^3
     number of atoms/cell      =            4
     number of atomic types    =            1
     number of electrons       =        44.00
     number of Kohn-Sham states=           26
     kinetic-energy cutoff     =      60.0000  Ry
     charge density cutoff     =     600.0000  Ry
     scf convergence threshold =      1.0E-08
     mixing beta               =       0.7000
     number of iterations used =            8  plain     mixing
     Exchange-correlation= SLA  PW   PBX  PBC
                           (   1   4   3   4   0   0   0)

     celldm(1)=   6.821911  celldm(2)=   0.000000  celldm(3)=   0.000000
     celldm(4)=   0.000000  celldm(5)=   0.000000  celldm(6)=   0.000000

     crystal axes: (cart. coord. in units of alat)
               a(1) = (   1.000000   0.000000   0.000000 )  
               a(2) = (   0.000000   1.000000   0.000000 )  
               a(3) = (   0.000000   0.000000   1.000000 )  

     reciprocal axes: (cart. coord. in units 2 pi/alat)
               b(1) = (  1.000000  0.000000  0.000000 )  
               b(2) = (  0.000000  1.000000  0.000000 )  
               b(3) = (  0.000000  0.000000  1.000000 )  


     PseudoPot. # 1 for Cu read from file:
     /Users/vittoriodibona/Desktop/Tutorial_LAMMPS/Esame/CopperQE/pseudo/Cu.pbe-dn-kjpaw_psl.1.0.0.UPF
     MD5 check sum: cfffd1f38ee05704b3e17f46f1730a6f
     Pseudo is Projector augmented-wave + core cor, Zval = 11.0
     Generated using &quot;atomic&quot; code by A. Dal Corso  v.6.3
     Shape of augmentation charge: PSQ
     Using radial grid of 1199 points,  6 beta functions with: 
                l(1) =   0
                l(2) =   0
                l(3) =   1
                l(4) =   1
                l(5) =   2
                l(6) =   2
     Q(r) pseudized with 0 coefficients 


     atomic species   valence    mass     pseudopotential
        Cu            11.00    63.54600     Cu( 1.00)

     48 Sym. Ops., with inversion, found



   Cartesian axes

     site n.     atom                  positions (alat units)
         1           Cu  tau(   1) = (   0.0000000   0.0000000   0.0000000  )
         2           Cu  tau(   2) = (   0.5000000   0.5000000   0.0000000  )
         3           Cu  tau(   3) = (   0.5000000   0.0000000   0.5000000  )
         4           Cu  tau(   4) = (   0.0000000   0.5000000   0.5000000  )

     number of k points=    10  Marzari-Vanderbilt smearing, width (Ry)=  0.0200
                       cart. coord. in units 2pi/alat
        k(    1) = (   0.0833333   0.0833333   0.0833333), wk =   0.0740741
        k(    2) = (   0.0833333   0.0833333   0.2500000), wk =   0.2222222
        k(    3) = (   0.0833333   0.0833333   0.4166667), wk =   0.2222222
        k(    4) = (   0.0833333   0.2500000   0.2500000), wk =   0.2222222
        k(    5) = (   0.0833333   0.2500000   0.4166667), wk =   0.4444444
        k(    6) = (   0.0833333   0.4166667   0.4166667), wk =   0.2222222
        k(    7) = (   0.2500000   0.2500000   0.2500000), wk =   0.0740741
        k(    8) = (   0.2500000   0.2500000   0.4166667), wk =   0.2222222
        k(    9) = (   0.2500000   0.4166667   0.4166667), wk =   0.2222222
        k(   10) = (   0.4166667   0.4166667   0.4166667), wk =   0.0740741

     Dense  grid:    78949 G-vectors     FFT dimensions: (  54,  54,  54)

     Smooth grid:    19933 G-vectors     FFT dimensions: (  36,  36,  36)

     Estimated max dynamical RAM per process >      76.80 MB

     Estimated total dynamical RAM >     307.21 MB

     Initial potential from superposition of free atoms

     starting charge      43.9991, renormalised to      44.0000
     Starting wfcs are   36 randomized atomic wfcs
     Checking if some PAW data can be deallocated... 

     total cpu time spent up to now is       47.7 secs

     Self-consistent Calculation

     iteration #  1     ecut=    60.00 Ry     beta= 0.70
     Davidson diagonalization with overlap
     ethr =  1.00E-02,  avg # of iterations =  2.5

     Threshold (ethr) on eigenvalues was too large:
     Diagonalizing with lowered threshold

     Davidson diagonalization with overlap
     ethr =  4.00E-04,  avg # of iterations =  2.5

     total cpu time spent up to now is      255.3 secs

     total energy              =    -852.24546192 Ry
     estimated scf accuracy    <       0.23797416 Ry

     iteration #  2     ecut=    60.00 Ry     beta= 0.70
     Davidson diagonalization with overlap
     ethr =  5.41E-04,  avg # of iterations =  3.1

     total cpu time spent up to now is      386.1 secs

     total energy              =    -852.25822262 Ry
     estimated scf accuracy    <       0.80567598 Ry

     iteration #  3     ecut=    60.00 Ry     beta= 0.70
     Davidson diagonalization with overlap
     ethr =  5.41E-04,  avg # of iterations =  2.1

     total cpu time spent up to now is      504.0 secs

     total energy              =    -852.38298332 Ry
     estimated scf accuracy    <       0.00079376 Ry

     iteration #  4     ecut=    60.00 Ry     beta= 0.70
     Davidson diagonalization with overlap
     ethr =  1.80E-06,  avg # of iterations =  6.1

     total cpu time spent up to now is      712.6 secs

     total energy              =    -852.38420951 Ry
     estimated scf accuracy    <       0.00124279 Ry

     iteration #  5     ecut=    60.00 Ry     beta= 0.70
     Davidson diagonalization with overlap
     ethr =  1.80E-06,  avg # of iterations =  1.0

     total cpu time spent up to now is      794.9 secs

     total energy              =    -852.38414243 Ry
     estimated scf accuracy    <       0.00035995 Ry

     iteration #  6     ecut=    60.00 Ry     beta= 0.70
     Davidson diagonalization with overlap
     ethr =  8.18E-07,  avg # of iterations =  2.0

     total cpu time spent up to now is      898.9 secs

     total energy              =    -852.38419390 Ry
     estimated scf accuracy    <       0.00000130 Ry

     iteration #  7     ecut=    60.00 Ry     beta= 0.70
     Davidson diagonalization with overlap
     ethr =  2.95E-09,  avg # of iterations =  4.3

     total cpu time spent up to now is     1056.7 secs

     total energy              =    -852.38419470 Ry
     estimated scf accuracy    <       0.00000021 Ry

     iteration #  8     ecut=    60.00 Ry     beta= 0.70
     Davidson diagonalization with overlap
     ethr =  4.74E-10,  avg # of iterations =  2.9

     total cpu time spent up to now is     1183.9 secs

     total energy              =    -852.38419481 Ry
     estimated scf accuracy    <       0.00000037 Ry

     iteration #  9     ecut=    60.00 Ry     beta= 0.70
     Davidson diagonalization with overlap
     ethr =  4.74E-10,  avg # of iterations =  1.0

     total cpu time spent up to now is     1267.4 secs

     total energy              =    -852.38419480 Ry
     estimated scf accuracy    <       0.00000009 Ry

     iteration # 10     ecut=    60.00 Ry     beta= 0.70
     Davidson diagonalization with overlap
     ethr =  2.04E-10,  avg # of iterations =  2.0

     total cpu time spent up to now is     1371.3 secs

     End of self-consistent calculation

          k = 0.0833 0.0833 0.0833 (  2505 PWs)   bands (ev):

     3.5545   7.8993   7.8993   7.8993   8.3575   8.3575   8.3575   9.6515
     9.7518   9.7518  10.5232  10.5232  10.9446  10.9446  10.9446  11.0152
    11.0152  11.0152  11.2229  11.2229  11.2230  14.1084  14.1084  14.1084
    20.6263  20.6263

          k = 0.0833 0.0833 0.2500 (  2499 PWs)   bands (ev):

     4.2142   7.7892   8.1848   8.1848   8.5259   8.5398   8.5398   9.4823
     9.8805   9.8860  10.2190  10.2190  10.3772  10.5284  10.6132  10.8141
    10.8211  10.8211  11.1123  11.2032  11.2032  12.0172  15.3445  15.3445
    20.9593  20.9593

          k = 0.0833 0.0833 0.4167 (  2494 PWs)   bands (ev):

     5.4526   6.9459   8.5577   8.5577   8.8230   8.8930   8.8930   9.1734
     9.4751   9.4751   9.9645   9.9698  10.1424  10.3734  10.4810  10.5457
    10.5458  10.7684  10.8588  10.9487  11.1956  11.1956  17.0719  17.0719
    19.1806  19.1806

          k = 0.0833 0.2500 0.2500 (  2492 PWs)   bands (ev):

     4.8460   8.1248   8.1248   8.4073   8.6627   8.6852   8.6852   9.4190
     9.8432   9.8432   9.8778   9.9265   9.9352  10.3781  10.6221  10.6784
    10.6784  10.6982  11.0668  11.0668  11.0905  13.0418  13.0418  16.2764
    18.6480  21.4414

          k = 0.0833 0.2500 0.4167 (  2498 PWs)   bands (ev):

     6.0158   7.3848   8.5852   8.7111   8.8271   8.9399   8.9485   9.2153
     9.3072   9.4819   9.6280   9.7957  10.1000  10.3722  10.4245  10.4475
    10.4713  10.8041  10.9943  11.0016  11.0089  11.5670  14.3943  16.1022
    18.0451  19.9624

          k = 0.0833 0.4167 0.4167 (  2494 PWs)   bands (ev):

     7.0003   8.0247   8.0247   8.4813   9.1372   9.1670   9.1670   9.2389
     9.3802   9.3802   9.4053   9.6532  10.0796  10.2382  10.2416  10.2416
    10.4563  10.7122  10.7122  10.7983  11.5220  12.4872  12.4872  13.9145
    19.4353  21.3592

          k = 0.2500 0.2500 0.2500 (  2494 PWs)   bands (ev):

     5.4297   8.2681   8.2681   8.2681   8.8485   8.8485   8.8485   9.4440
     9.7201   9.7202   9.7202   9.8632   9.8632  10.3526  10.3526  10.3526
    10.6249  10.6249  11.1586  11.1586  11.1586  13.6678  13.6678  13.6678
    19.4490  19.4490

          k = 0.2500 0.2500 0.4167 (  2488 PWs)   bands (ev):

     6.4722   7.6068   8.3764   8.3764   9.0712   9.0712   9.1683   9.3891
     9.6204   9.6204   9.6213   9.7683   9.9008  10.0768  10.1869  10.1869
    10.8100  10.8986  11.0814  11.0814  11.0966  11.7456  14.5911  14.5911
    17.3777  17.3777

          k = 0.2500 0.4167 0.4167 (  2470 PWs)   bands (ev):

     7.1892   7.8629   7.8629   8.1037   9.3414   9.4414   9.4414   9.6982
     9.7044   9.7421   9.7421   9.8223   9.8618   9.9494   9.9494   9.9642
    10.7930  11.0090  11.0090  11.0188  11.3440  12.4718  12.4718  13.7198
    17.0611  18.5400

          k = 0.4167 0.4167 0.4167 (  2476 PWs)   bands (ev):

     7.4423   7.7365   7.7365   7.7365   9.5825   9.5825   9.5825   9.7038
     9.7038   9.7569   9.7569   9.7569  10.4144  10.4144  10.4144  10.7168
    11.0408  11.0408  11.1228  11.1228  11.1228  12.4257  12.4257  12.4257
    16.7906  16.7906

     the Fermi energy is    12.6162 ev

!    total energy              =    -852.38419481 Ry
     total all-electron energy =    -13239.903259 Ry
     estimated scf accuracy    <          2.0E-09 Ry
     smearing contrib. (-TS)   =      -0.00115623 Ry
     internal energy E=F+TS    =    -852.38303858 Ry

     The total energy is F=E-TS. E is the sum of the following terms:
     one-electron contribution =    -111.40779616 Ry
     hartree contribution      =     122.21405791 Ry
     xc contribution           =    -178.51357124 Ry
     ewald contribution        =    -325.28617016 Ry
     one-center paw contrib.   =    -359.38955892 Ry

     convergence has been achieved in  10 iterations

     Forces acting on atoms (cartesian axes, Ry/au):

     atom    1 type  1   force =     0.00000000    0.00000000    0.00000000
     atom    2 type  1   force =     0.00000000    0.00000000    0.00000000
     atom    3 type  1   force =     0.00000000    0.00000000    0.00000000
     atom    4 type  1   force =     0.00000000    0.00000000    0.00000000
     The non-local contrib.  to forces
     atom    1 type  1   force =     0.00000000    0.00000000    0.00000000
     atom    2 type  1   force =     0.00000000    0.00000000    0.00000000
     atom    3 type  1   force =     0.00000000    0.00000000    0.00000000
     atom    4 type  1   force =     0.00000000    0.00000000    0.00000000
     The ionic contribution  to forces
     atom    1 type  1   force =    -0.00000000   -0.00000000   -0.00000000
     atom    2 type  1   force =     0.00000000    0.00000000   -0.00000000
     atom    3 type  1   force =     0.00000000   -0.00000000    0.00000000
     atom    4 type  1   force =    -0.00000000    0.00000000    0.00000000
     The local contribution  to forces
     atom    1 type  1   force =     0.00000000    0.00000000    0.00000000
     atom    2 type  1   force =     0.00000000    0.00000000    0.00000000
     atom    3 type  1   force =     0.00000000    0.00000000    0.00000000
     atom    4 type  1   force =     0.00000000    0.00000000    0.00000000
     The core correction contribution to forces
     atom    1 type  1   force =     0.00000000    0.00000000    0.00000000
     atom    2 type  1   force =     0.00000000    0.00000000    0.00000000
     atom    3 type  1   force =     0.00000000    0.00000000    0.00000000
     atom    4 type  1   force =     0.00000000    0.00000000    0.00000000
     The Hubbard contrib.    to forces
     atom    1 type  1   force =     0.00000000    0.00000000    0.00000000
     atom    2 type  1   force =     0.00000000    0.00000000    0.00000000
     atom    3 type  1   force =     0.00000000    0.00000000    0.00000000
     atom    4 type  1   force =     0.00000000    0.00000000    0.00000000
     The SCF correction term to forces
     atom    1 type  1   force =    -0.00000000   -0.00000000    0.00000000
     atom    2 type  1   force =    -0.00000000   -0.00000000    0.00000000
     atom    3 type  1   force =     0.00000000   -0.00000000   -0.00000000
     atom    4 type  1   force =    -0.00000000   -0.00000000   -0.00000000

     Total force =     0.000000     Total SCF correction =     0.000000


     Computing stress (Cartesian axis) and pressure

          total   stress  (Ry/bohr**3)                   (kbar)     P=       23.38
   0.00015895   0.00000000   0.00000000           23.38        0.00        0.00
   0.00000000   0.00015895   0.00000000            0.00       23.38        0.00
   0.00000000   0.00000000   0.00015895            0.00        0.00       23.38


     Writing all to output data dir /Users/vittoriodibona/Desktop/Tutorial_LAMMPS/Esame/CopperQE/tmp/Cu_ecut_60Ry_k6.save/

     init_run     :     79.05s CPU     47.47s WALL (       1 calls)
     electrons    :   2342.25s CPU   1323.69s WALL (       1 calls)
     forces       :    155.79s CPU     79.90s WALL (       1 calls)
     stress       :     17.31s CPU      9.53s WALL (       1 calls)

     Called by init_run:
     wfcinit      :     43.14s CPU     28.64s WALL (       1 calls)
     potinit      :      0.19s CPU      0.20s WALL (       1 calls)
     hinit0       :      0.80s CPU      0.25s WALL (       1 calls)

     Called by electrons:
     c_bands      :   1827.71s CPU   1052.46s WALL (      11 calls)
     sum_band     :    158.96s CPU     90.24s WALL (      11 calls)
     v_of_rho     :      0.54s CPU      0.38s WALL (      11 calls)
     newd         :    386.21s CPU    195.65s WALL (      11 calls)
     PAW_pot      :      2.15s CPU      2.02s WALL (      11 calls)
     mix_rho      :      0.49s CPU      0.20s WALL (      11 calls)

     Called by c_bands:
     init_us_2    :      0.19s CPU      0.15s WALL (     250 calls)
     init_us_2:cp :      0.19s CPU      0.14s WALL (     250 calls)
     cegterg      :   1812.90s CPU   1041.26s WALL (     110 calls)

     Called by *egterg:
     cdiaghg      :    101.96s CPU     54.81s WALL (     395 calls)
     h_psi        :    648.20s CPU    377.59s WALL (     415 calls)
     s_psi        :     83.87s CPU     45.65s WALL (     415 calls)
     g_psi        :      0.03s CPU      0.01s WALL (     295 calls)

     Called by h_psi:
     h_psi:calbec :    450.12s CPU    275.33s WALL (     415 calls)
     vloc_psi     :    115.97s CPU     56.94s WALL (     415 calls)
     add_vuspsi   :     82.07s CPU     45.30s WALL (     415 calls)

     General routines
     calbec       :    648.43s CPU    385.03s WALL (     575 calls)
     fft          :      0.77s CPU      0.49s WALL (     167 calls)
     ffts         :      0.69s CPU      0.49s WALL (      22 calls)
     fftw         :    130.28s CPU     64.89s WALL (   18722 calls)
     interpolate  :      0.05s CPU      0.06s WALL (      11 calls)

     Parallel routines

     PWSCF        :  43m14.75s CPU  24m21.09s WALL


   This run was terminated on:  19:20:19  22Jan2026            

=------------------------------------------------------------------------------=
   JOB DONE.
=------------------------------------------------------------------------------=
