
     Program PWSCF v.7.2 starts on 22Jan2026 at 18:34: 5 

     This program is part of the open-source Quantum ESPRESSO suite
     for quantum simulation of materials; please cite
         "P. Giannozzi et al., J. Phys.:Condens. Matter 21 395502 (2009);
         "P. Giannozzi et al., J. Phys.:Condens. Matter 29 465901 (2017);
         "P. Giannozzi et al., J. Chem. Phys. 152 154105 (2020);
          URL http://www.quantum-espresso.org", 
     in publications or presentations arising from this work. More details at
     http://www.quantum-espresso.org/quote

     Parallel version (MPI), running on     4 processors

     MPI processes distributed on     1 nodes
     0 MiB available memory on the printing compute node when the environment starts

     Reading input from /Users/vittoriodibona/Desktop/Tutorial_LAMMPS/Esame/CopperQE/1_convergence/ecut/Cu_ecut_50Ry_k6.in

     Current dimensions of program PWSCF are:
     Max number of different atomic species (ntypx) = 10
     Max number of k-points (npk) =  40000
     Max angular momentum in pseudopotentials (lmaxx) =  4
     file Cu.pbe-dn-kjpaw_psl.1.0.0.UPF: wavefunction(s)  4S 3D renormalized
     Found identity + ( -0.5000 -0.5000  0.0000) symmetry
     This is a supercell, fractional translations are disabled

     R & G space division:  proc/nbgrp/npool/nimage =       4
     Subspace diagonalization in iterative solution of the eigenvalue problem:
     a serial algorithm will be used


     Parallelization info
     --------------------
     sticks:   dense  smooth     PW     G-vecs:    dense   smooth      PW
     Min         465     187     55                15001     3799     629
     Max         466     188     56                15002     3802     630
     Sum        1861     749    221                60005    15203    2517

     Using Slab Decomposition



     bravais-lattice index     =            1
     lattice parameter (alat)  =       6.8219  a.u.
     unit-cell volume          =     317.4813 (a.u.)^3
     number of atoms/cell      =            4
     number of atomic types    =            1
     number of electrons       =        44.00
     number of Kohn-Sham states=           26
     kinetic-energy cutoff     =      50.0000  Ry
     charge density cutoff     =     500.0000  Ry
     scf convergence threshold =      1.0E-08
     mixing beta               =       0.7000
     number of iterations used =            8  plain     mixing
     Exchange-correlation= SLA  PW   PBX  PBC
                           (   1   4   3   4   0   0   0)

     celldm(1)=   6.821911  celldm(2)=   0.000000  celldm(3)=   0.000000
     celldm(4)=   0.000000  celldm(5)=   0.000000  celldm(6)=   0.000000

     crystal axes: (cart. coord. in units of alat)
               a(1) = (   1.000000   0.000000   0.000000 )  
               a(2) = (   0.000000   1.000000   0.000000 )  
               a(3) = (   0.000000   0.000000   1.000000 )  

     reciprocal axes: (cart. coord. in units 2 pi/alat)
               b(1) = (  1.000000  0.000000  0.000000 )  
               b(2) = (  0.000000  1.000000  0.000000 )  
               b(3) = (  0.000000  0.000000  1.000000 )  


     PseudoPot. # 1 for Cu read from file:
     /Users/vittoriodibona/Desktop/Tutorial_LAMMPS/Esame/CopperQE/pseudo/Cu.pbe-dn-kjpaw_psl.1.0.0.UPF
     MD5 check sum: cfffd1f38ee05704b3e17f46f1730a6f
     Pseudo is Projector augmented-wave + core cor, Zval = 11.0
     Generated using &quot;atomic&quot; code by A. Dal Corso  v.6.3
     Shape of augmentation charge: PSQ
     Using radial grid of 1199 points,  6 beta functions with: 
                l(1) =   0
                l(2) =   0
                l(3) =   1
                l(4) =   1
                l(5) =   2
                l(6) =   2
     Q(r) pseudized with 0 coefficients 


     atomic species   valence    mass     pseudopotential
        Cu            11.00    63.54600     Cu( 1.00)

     48 Sym. Ops., with inversion, found



   Cartesian axes

     site n.     atom                  positions (alat units)
         1           Cu  tau(   1) = (   0.0000000   0.0000000   0.0000000  )
         2           Cu  tau(   2) = (   0.5000000   0.5000000   0.0000000  )
         3           Cu  tau(   3) = (   0.5000000   0.0000000   0.5000000  )
         4           Cu  tau(   4) = (   0.0000000   0.5000000   0.5000000  )

     number of k points=    10  Marzari-Vanderbilt smearing, width (Ry)=  0.0200
                       cart. coord. in units 2pi/alat
        k(    1) = (   0.0833333   0.0833333   0.0833333), wk =   0.0740741
        k(    2) = (   0.0833333   0.0833333   0.2500000), wk =   0.2222222
        k(    3) = (   0.0833333   0.0833333   0.4166667), wk =   0.2222222
        k(    4) = (   0.0833333   0.2500000   0.2500000), wk =   0.2222222
        k(    5) = (   0.0833333   0.2500000   0.4166667), wk =   0.4444444
        k(    6) = (   0.0833333   0.4166667   0.4166667), wk =   0.2222222
        k(    7) = (   0.2500000   0.2500000   0.2500000), wk =   0.0740741
        k(    8) = (   0.2500000   0.2500000   0.4166667), wk =   0.2222222
        k(    9) = (   0.2500000   0.4166667   0.4166667), wk =   0.2222222
        k(   10) = (   0.4166667   0.4166667   0.4166667), wk =   0.0740741

     Dense  grid:    60005 G-vectors     FFT dimensions: (  50,  50,  50)

     Smooth grid:    15203 G-vectors     FFT dimensions: (  32,  32,  32)

     Estimated max dynamical RAM per process >      58.77 MB

     Estimated total dynamical RAM >     235.08 MB

     Initial potential from superposition of free atoms

     starting charge      43.9991, renormalised to      44.0000
     Starting wfcs are   36 randomized atomic wfcs
     Checking if some PAW data can be deallocated... 

     total cpu time spent up to now is       38.7 secs

     Self-consistent Calculation

     iteration #  1     ecut=    50.00 Ry     beta= 0.70
     Davidson diagonalization with overlap
     ethr =  1.00E-02,  avg # of iterations =  2.6

     Threshold (ethr) on eigenvalues was too large:
     Diagonalizing with lowered threshold

     Davidson diagonalization with overlap
     ethr =  3.99E-04,  avg # of iterations =  2.3

     total cpu time spent up to now is      214.7 secs

     total energy              =    -852.24179077 Ry
     estimated scf accuracy    <       0.23737422 Ry

     iteration #  2     ecut=    50.00 Ry     beta= 0.70
     Davidson diagonalization with overlap
     ethr =  5.39E-04,  avg # of iterations =  2.9

     total cpu time spent up to now is      330.7 secs

     total energy              =    -852.25482291 Ry
     estimated scf accuracy    <       0.80241161 Ry

     iteration #  3     ecut=    50.00 Ry     beta= 0.70
     Davidson diagonalization with overlap
     ethr =  5.39E-04,  avg # of iterations =  2.1

     total cpu time spent up to now is      436.7 secs

     total energy              =    -852.37936048 Ry
     estimated scf accuracy    <       0.00074317 Ry

     iteration #  4     ecut=    50.00 Ry     beta= 0.70
     Davidson diagonalization with overlap
     ethr =  1.69E-06,  avg # of iterations =  6.3

     total cpu time spent up to now is      632.2 secs

     total energy              =    -852.38035937 Ry
     estimated scf accuracy    <       0.00116845 Ry

     iteration #  5     ecut=    50.00 Ry     beta= 0.70
     Davidson diagonalization with overlap
     ethr =  1.69E-06,  avg # of iterations =  2.0

     total cpu time spent up to now is      726.5 secs

     total energy              =    -852.38044602 Ry
     estimated scf accuracy    <       0.00008372 Ry

     iteration #  6     ecut=    50.00 Ry     beta= 0.70
     Davidson diagonalization with overlap
     ethr =  1.90E-07,  avg # of iterations =  2.2

     total cpu time spent up to now is      829.8 secs

     total energy              =    -852.38046210 Ry
     estimated scf accuracy    <       0.00000054 Ry

     iteration #  7     ecut=    50.00 Ry     beta= 0.70
     Davidson diagonalization with overlap
     ethr =  1.22E-09,  avg # of iterations =  5.0

     total cpu time spent up to now is      994.3 secs

     total energy              =    -852.38046266 Ry
     estimated scf accuracy    <       0.00000048 Ry

     iteration #  8     ecut=    50.00 Ry     beta= 0.70
     Davidson diagonalization with overlap
     ethr =  1.09E-09,  avg # of iterations =  1.0

     total cpu time spent up to now is     1066.6 secs

     total energy              =    -852.38046264 Ry
     estimated scf accuracy    <       0.00000018 Ry

     iteration #  9     ecut=    50.00 Ry     beta= 0.70
     Davidson diagonalization with overlap
     ethr =  4.10E-10,  avg # of iterations =  1.0

     total cpu time spent up to now is     1139.7 secs

     total energy              =    -852.38046264 Ry
     estimated scf accuracy    <       0.00000003 Ry

     iteration # 10     ecut=    50.00 Ry     beta= 0.70
     Davidson diagonalization with overlap
     ethr =  6.26E-11,  avg # of iterations =  2.2

     total cpu time spent up to now is     1236.7 secs

     End of self-consistent calculation

          k = 0.0833 0.0833 0.0833 (  1896 PWs)   bands (ev):

     3.5550   7.8997   7.8997   7.8997   8.3583   8.3583   8.3583   9.6521
     9.7524   9.7524  10.5241  10.5241  10.9460  10.9460  10.9460  11.0165
    11.0165  11.0165  11.2244  11.2244  11.2244  14.1093  14.1093  14.1093
    20.6274  20.6274

          k = 0.0833 0.0833 0.2500 (  1904 PWs)   bands (ev):

     4.2147   7.7898   8.1852   8.1852   8.5268   8.5404   8.5404   9.4829
     9.8813   9.8867  10.2199  10.2199  10.3781  10.5295  10.6141  10.8152
    10.8223  10.8223  11.1138  11.2046  11.2046  12.0182  15.3455  15.3455
    20.9604  20.9605

          k = 0.0833 0.0833 0.4167 (  1897 PWs)   bands (ev):

     5.4532   6.9465   8.5583   8.5583   8.8237   8.8936   8.8936   9.1742
     9.4761   9.4761   9.9655   9.9710  10.1433  10.3743  10.4822  10.5470
    10.5470  10.7695  10.8599  10.9498  11.1970  11.1970  17.0729  17.0729
    19.1816  19.1816

          k = 0.0833 0.2500 0.2500 (  1895 PWs)   bands (ev):

     4.8466   8.1255   8.1255   8.4081   8.6632   8.6859   8.6859   9.4199
     9.8443   9.8443   9.8786   9.9275   9.9361  10.3791  10.6232  10.6795
    10.6795  10.6993  11.0682  11.0682  11.0919  13.0429  13.0429  16.2774
    18.6489  21.4424

          k = 0.0833 0.2500 0.4167 (  1899 PWs)   bands (ev):

     6.0164   7.3854   8.5859   8.7119   8.8279   8.9407   8.9490   9.2162
     9.3079   9.4828   9.6290   9.7965  10.1009  10.3733  10.4257  10.4485
    10.4724  10.8053  10.9954  11.0030  11.0102  11.5683  14.3954  16.1032
    18.0461  19.9634

          k = 0.0833 0.4167 0.4167 (  1904 PWs)   bands (ev):

     7.0009   8.0254   8.0254   8.4820   9.1380   9.1677   9.1677   9.2399
     9.3811   9.3811   9.4062   9.6540  10.0805  10.2394  10.2425  10.2425
    10.4573  10.7133  10.7133  10.7995  11.5233  12.4884  12.4884  13.9156
    19.4364  21.3603

          k = 0.2500 0.2500 0.2500 (  1899 PWs)   bands (ev):

     5.4303   8.2688   8.2688   8.2688   8.8491   8.8491   8.8491   9.4448
     9.7211   9.7211   9.7211   9.8639   9.8639  10.3538  10.3538  10.3538
    10.6260  10.6260  11.1601  11.1601  11.1601  13.6688  13.6688  13.6688
    19.4499  19.4499

          k = 0.2500 0.2500 0.4167 (  1886 PWs)   bands (ev):

     6.4728   7.6075   8.3771   8.3771   9.0720   9.0720   9.1692   9.3900
     9.6213   9.6214   9.6222   9.7692   9.9016  10.0782  10.1880  10.1880
    10.8112  10.8999  11.0828  11.0828  11.0983  11.7469  14.5921  14.5921
    17.3787  17.3787

          k = 0.2500 0.4167 0.4167 (  1892 PWs)   bands (ev):

     7.1897   7.8636   7.8636   8.1044   9.3422   9.4424   9.4424   9.6992
     9.7050   9.7431   9.7431   9.8230   9.8628   9.9502   9.9502   9.9652
    10.7942  11.0105  11.0105  11.0203  11.3453  12.4730  12.4730  13.7208
    17.0621  18.5410

          k = 0.4167 0.4167 0.4167 (  1890 PWs)   bands (ev):

     7.4428   7.7371   7.7371   7.7371   9.5833   9.5833   9.5833   9.7046
     9.7046   9.7576   9.7576   9.7576  10.4155  10.4155  10.4155  10.7175
    11.0424  11.0424  11.1244  11.1244  11.1244  12.4267  12.4267  12.4267
    16.7917  16.7917

     the Fermi energy is    12.6173 ev

!    total energy              =    -852.38046264 Ry
     total all-electron energy =    -13239.899527 Ry
     estimated scf accuracy    <          6.5E-10 Ry
     smearing contrib. (-TS)   =      -0.00115609 Ry
     internal energy E=F+TS    =    -852.37930655 Ry

     The total energy is F=E-TS. E is the sum of the following terms:
     one-electron contribution =    -111.40213301 Ry
     hartree contribution      =     122.21330665 Ry
     xc contribution           =    -178.51430867 Ry
     ewald contribution        =    -325.28617016 Ry
     one-center paw contrib.   =    -359.39000137 Ry

     convergence has been achieved in  10 iterations

     Forces acting on atoms (cartesian axes, Ry/au):

     atom    1 type  1   force =     0.00000000    0.00000000    0.00000000
     atom    2 type  1   force =     0.00000000    0.00000000    0.00000000
     atom    3 type  1   force =     0.00000000    0.00000000    0.00000000
     atom    4 type  1   force =     0.00000000    0.00000000    0.00000000
     The non-local contrib.  to forces
     atom    1 type  1   force =     0.00000000    0.00000000    0.00000000
     atom    2 type  1   force =     0.00000000    0.00000000    0.00000000
     atom    3 type  1   force =     0.00000000    0.00000000    0.00000000
     atom    4 type  1   force =     0.00000000    0.00000000    0.00000000
     The ionic contribution  to forces
     atom    1 type  1   force =    -0.00000000   -0.00000000   -0.00000000
     atom    2 type  1   force =     0.00000000    0.00000000   -0.00000000
     atom    3 type  1   force =     0.00000000   -0.00000000    0.00000000
     atom    4 type  1   force =    -0.00000000    0.00000000    0.00000000
     The local contribution  to forces
     atom    1 type  1   force =    -0.00000000    0.00000000    0.00000000
     atom    2 type  1   force =     0.00000000    0.00000000    0.00000000
     atom    3 type  1   force =     0.00000000    0.00000000    0.00000000
     atom    4 type  1   force =     0.00000000    0.00000000    0.00000000
     The core correction contribution to forces
     atom    1 type  1   force =     0.00000000   -0.00000000   -0.00000000
     atom    2 type  1   force =     0.00000000    0.00000000   -0.00000000
     atom    3 type  1   force =     0.00000000   -0.00000000    0.00000000
     atom    4 type  1   force =    -0.00000000    0.00000000    0.00000000
     The Hubbard contrib.    to forces
     atom    1 type  1   force =     0.00000000    0.00000000    0.00000000
     atom    2 type  1   force =     0.00000000    0.00000000    0.00000000
     atom    3 type  1   force =     0.00000000    0.00000000    0.00000000
     atom    4 type  1   force =     0.00000000    0.00000000    0.00000000
     The SCF correction term to forces
     atom    1 type  1   force =     0.00000000   -0.00000000    0.00000000
     atom    2 type  1   force =    -0.00000000    0.00000000    0.00000000
     atom    3 type  1   force =    -0.00000000   -0.00000000    0.00000000
     atom    4 type  1   force =     0.00000000   -0.00000000    0.00000000

     Total force =     0.000000     Total SCF correction =     0.000000


     Computing stress (Cartesian axis) and pressure

          total   stress  (Ry/bohr**3)                   (kbar)     P=        8.96
   0.00006093   0.00000000   0.00000000            8.96        0.00        0.00
   0.00000000   0.00006093   0.00000000            0.00        8.96        0.00
   0.00000000   0.00000000   0.00006093            0.00        0.00        8.96


     Writing all to output data dir /Users/vittoriodibona/Desktop/Tutorial_LAMMPS/Esame/CopperQE/tmp/Cu_ecut_50Ry_k6.save/

     init_run     :     60.02s CPU     38.48s WALL (       1 calls)
     electrons    :   2065.13s CPU   1198.02s WALL (       1 calls)
     forces       :    118.91s CPU     66.44s WALL (       1 calls)
     stress       :     13.85s CPU      9.36s WALL (       1 calls)

     Called by init_run:
     wfcinit      :     32.92s CPU     23.63s WALL (       1 calls)
     potinit      :      0.23s CPU      0.33s WALL (       1 calls)
     hinit0       :      0.30s CPU      0.44s WALL (       1 calls)

     Called by electrons:
     c_bands      :   1655.78s CPU    976.65s WALL (      11 calls)
     sum_band     :    139.44s CPU     82.47s WALL (      11 calls)
     v_of_rho     :      0.31s CPU      0.26s WALL (      11 calls)
     newd         :    293.08s CPU    149.96s WALL (      11 calls)
     PAW_pot      :      1.98s CPU      1.74s WALL (      11 calls)
     mix_rho      :      0.18s CPU      0.14s WALL (      11 calls)

     Called by c_bands:
     init_us_2    :      0.21s CPU      0.15s WALL (     250 calls)
     init_us_2:cp :      0.21s CPU      0.14s WALL (     250 calls)
     cegterg      :   1641.81s CPU    965.82s WALL (     110 calls)

     Called by *egterg:
     cdiaghg      :     95.96s CPU     51.12s WALL (     396 calls)
     h_psi        :    562.30s CPU    338.96s WALL (     416 calls)
     s_psi        :     84.71s CPU     46.95s WALL (     416 calls)
     g_psi        :      0.02s CPU      0.02s WALL (     296 calls)

     Called by h_psi:
     h_psi:calbec :    389.17s CPU    240.46s WALL (     416 calls)
     vloc_psi     :     91.90s CPU     53.20s WALL (     416 calls)
     add_vuspsi   :     81.13s CPU     45.25s WALL (     416 calls)

     General routines
     calbec       :    556.14s CPU    341.50s WALL (     576 calls)
     fft          :      0.45s CPU      0.43s WALL (     167 calls)
     ffts         :      0.58s CPU      0.46s WALL (      22 calls)
     fftw         :    103.08s CPU     59.72s WALL (   18576 calls)
     interpolate  :      0.09s CPU      0.11s WALL (      11 calls)

     Parallel routines

     PWSCF        :  37m38.33s CPU  21m52.74s WALL


   This run was terminated on:  18:55:58  22Jan2026            

=------------------------------------------------------------------------------=
   JOB DONE.
=------------------------------------------------------------------------------=
