
     Program PWSCF v.7.2 starts on 22Jan2026 at 17:47:42 

     This program is part of the open-source Quantum ESPRESSO suite
     for quantum simulation of materials; please cite
         "P. Giannozzi et al., J. Phys.:Condens. Matter 21 395502 (2009);
         "P. Giannozzi et al., J. Phys.:Condens. Matter 29 465901 (2017);
         "P. Giannozzi et al., J. Chem. Phys. 152 154105 (2020);
          URL http://www.quantum-espresso.org", 
     in publications or presentations arising from this work. More details at
     http://www.quantum-espresso.org/quote

     Parallel version (MPI), running on     4 processors

     MPI processes distributed on     1 nodes
     0 MiB available memory on the printing compute node when the environment starts

     Reading input from /Users/vittoriodibona/Desktop/Tutorial_LAMMPS/Esame/CopperQE/1_convergence/ecut/Cu_ecut_40Ry_k6.in

     Current dimensions of program PWSCF are:
     Max number of different atomic species (ntypx) = 10
     Max number of k-points (npk) =  40000
     Max angular momentum in pseudopotentials (lmaxx) =  4
     file Cu.pbe-dn-kjpaw_psl.1.0.0.UPF: wavefunction(s)  4S 3D renormalized
     Found identity + ( -0.5000 -0.5000  0.0000) symmetry
     This is a supercell, fractional translations are disabled

     R & G space division:  proc/nbgrp/npool/nimage =       4
     Subspace diagonalization in iterative solution of the eigenvalue problem:
     a serial algorithm will be used


     Parallelization info
     --------------------
     sticks:   dense  smooth     PW     G-vecs:    dense   smooth      PW
     Min         370     148     44                10732     2706     458
     Max         371     149     45                10735     2709     463
     Sum        1481     593    177                42931    10827    1839

     Using Slab Decomposition



     bravais-lattice index     =            1
     lattice parameter (alat)  =       6.8219  a.u.
     unit-cell volume          =     317.4813 (a.u.)^3
     number of atoms/cell      =            4
     number of atomic types    =            1
     number of electrons       =        44.00
     number of Kohn-Sham states=           26
     kinetic-energy cutoff     =      40.0000  Ry
     charge density cutoff     =     400.0000  Ry
     scf convergence threshold =      1.0E-08
     mixing beta               =       0.7000
     number of iterations used =            8  plain     mixing
     Exchange-correlation= SLA  PW   PBX  PBC
                           (   1   4   3   4   0   0   0)

     celldm(1)=   6.821911  celldm(2)=   0.000000  celldm(3)=   0.000000
     celldm(4)=   0.000000  celldm(5)=   0.000000  celldm(6)=   0.000000

     crystal axes: (cart. coord. in units of alat)
               a(1) = (   1.000000   0.000000   0.000000 )  
               a(2) = (   0.000000   1.000000   0.000000 )  
               a(3) = (   0.000000   0.000000   1.000000 )  

     reciprocal axes: (cart. coord. in units 2 pi/alat)
               b(1) = (  1.000000  0.000000  0.000000 )  
               b(2) = (  0.000000  1.000000  0.000000 )  
               b(3) = (  0.000000  0.000000  1.000000 )  


     PseudoPot. # 1 for Cu read from file:
     /Users/vittoriodibona/Desktop/Tutorial_LAMMPS/Esame/CopperQE/pseudo/Cu.pbe-dn-kjpaw_psl.1.0.0.UPF
     MD5 check sum: cfffd1f38ee05704b3e17f46f1730a6f
     Pseudo is Projector augmented-wave + core cor, Zval = 11.0
     Generated using &quot;atomic&quot; code by A. Dal Corso  v.6.3
     Shape of augmentation charge: PSQ
     Using radial grid of 1199 points,  6 beta functions with: 
                l(1) =   0
                l(2) =   0
                l(3) =   1
                l(4) =   1
                l(5) =   2
                l(6) =   2
     Q(r) pseudized with 0 coefficients 


     atomic species   valence    mass     pseudopotential
        Cu            11.00    63.54600     Cu( 1.00)

     48 Sym. Ops., with inversion, found



   Cartesian axes

     site n.     atom                  positions (alat units)
         1           Cu  tau(   1) = (   0.0000000   0.0000000   0.0000000  )
         2           Cu  tau(   2) = (   0.5000000   0.5000000   0.0000000  )
         3           Cu  tau(   3) = (   0.5000000   0.0000000   0.5000000  )
         4           Cu  tau(   4) = (   0.0000000   0.5000000   0.5000000  )

     number of k points=    10  Marzari-Vanderbilt smearing, width (Ry)=  0.0200
                       cart. coord. in units 2pi/alat
        k(    1) = (   0.0833333   0.0833333   0.0833333), wk =   0.0740741
        k(    2) = (   0.0833333   0.0833333   0.2500000), wk =   0.2222222
        k(    3) = (   0.0833333   0.0833333   0.4166667), wk =   0.2222222
        k(    4) = (   0.0833333   0.2500000   0.2500000), wk =   0.2222222
        k(    5) = (   0.0833333   0.2500000   0.4166667), wk =   0.4444444
        k(    6) = (   0.0833333   0.4166667   0.4166667), wk =   0.2222222
        k(    7) = (   0.2500000   0.2500000   0.2500000), wk =   0.0740741
        k(    8) = (   0.2500000   0.2500000   0.4166667), wk =   0.2222222
        k(    9) = (   0.2500000   0.4166667   0.4166667), wk =   0.2222222
        k(   10) = (   0.4166667   0.4166667   0.4166667), wk =   0.0740741

     Dense  grid:    42931 G-vectors     FFT dimensions: (  45,  45,  45)

     Smooth grid:    10827 G-vectors     FFT dimensions: (  27,  27,  27)

     Estimated max dynamical RAM per process >      42.45 MB

     Estimated total dynamical RAM >     169.81 MB

     Initial potential from superposition of free atoms

     starting charge      43.9991, renormalised to      44.0000
     Starting wfcs are   36 randomized atomic wfcs
     Checking if some PAW data can be deallocated... 

     total cpu time spent up to now is       34.2 secs

     Self-consistent Calculation

     iteration #  1     ecut=    40.00 Ry     beta= 0.70
     Davidson diagonalization with overlap
     ethr =  1.00E-02,  avg # of iterations =  2.5

     Threshold (ethr) on eigenvalues was too large:
     Diagonalizing with lowered threshold

     Davidson diagonalization with overlap
     ethr =  3.87E-04,  avg # of iterations =  2.5

     total cpu time spent up to now is      645.9 secs

     total energy              =    -852.23485446 Ry
     estimated scf accuracy    <       0.22973808 Ry

     iteration #  2     ecut=    40.00 Ry     beta= 0.70
     Davidson diagonalization with overlap
     ethr =  5.22E-04,  avg # of iterations =  3.0

     total cpu time spent up to now is      747.5 secs

     total energy              =    -852.24678865 Ry
     estimated scf accuracy    <       0.77311561 Ry

     iteration #  3     ecut=    40.00 Ry     beta= 0.70
     Davidson diagonalization with overlap
     ethr =  5.22E-04,  avg # of iterations =  2.1

     total cpu time spent up to now is      839.5 secs

     total energy              =    -852.36726757 Ry
     estimated scf accuracy    <       0.00071014 Ry

     iteration #  4     ecut=    40.00 Ry     beta= 0.70
     Davidson diagonalization with overlap
     ethr =  1.61E-06,  avg # of iterations =  6.1

     total cpu time spent up to now is     1013.2 secs

     total energy              =    -852.36842676 Ry
     estimated scf accuracy    <       0.00122538 Ry

     iteration #  5     ecut=    40.00 Ry     beta= 0.70
     Davidson diagonalization with overlap
     ethr =  1.61E-06,  avg # of iterations =  1.0

     total cpu time spent up to now is     1078.2 secs

     total energy              =    -852.36819087 Ry
     estimated scf accuracy    <       0.00075030 Ry

     iteration #  6     ecut=    40.00 Ry     beta= 0.70
     Davidson diagonalization with overlap
     ethr =  1.61E-06,  avg # of iterations =  2.0

     total cpu time spent up to now is     1163.1 secs

     total energy              =    -852.36829691 Ry
     estimated scf accuracy    <       0.00000301 Ry

     iteration #  7     ecut=    40.00 Ry     beta= 0.70
     Davidson diagonalization with overlap
     ethr =  6.85E-09,  avg # of iterations =  4.5

     total cpu time spent up to now is     1295.8 secs

     total energy              =    -852.36829927 Ry
     estimated scf accuracy    <       0.00000011 Ry

     iteration #  8     ecut=    40.00 Ry     beta= 0.70
     Davidson diagonalization with overlap
     ethr =  2.52E-10,  avg # of iterations =  3.4

     total cpu time spent up to now is     1408.8 secs

     total energy              =    -852.36829910 Ry
     estimated scf accuracy    <       0.00000090 Ry

     iteration #  9     ecut=    40.00 Ry     beta= 0.70
     Davidson diagonalization with overlap
     ethr =  2.52E-10,  avg # of iterations =  2.7

     total cpu time spent up to now is     1505.6 secs

     End of self-consistent calculation

          k = 0.0833 0.0833 0.0833 (  1346 PWs)   bands (ev):

     3.5560   7.9130   7.9130   7.9130   8.3741   8.3741   8.3741   9.6689
     9.7694   9.7694  10.5414  10.5414  10.9608  10.9608  10.9608  11.0331
    11.0331  11.0331  11.2406  11.2406  11.2406  14.1136  14.1136  14.1136
    20.6346  20.6346

          k = 0.0833 0.0833 0.2500 (  1354 PWs)   bands (ev):

     4.2158   7.8004   8.1987   8.1987   8.5425   8.5556   8.5556   9.4994
     9.8980   9.9033  10.2338  10.2338  10.3949  10.5430  10.6313  10.8316
    10.8386  10.8386  11.1302  11.2207  11.2207  12.0273  15.3514  15.3514
    20.9680  20.9680

          k = 0.0833 0.0833 0.4167 (  1355 PWs)   bands (ev):

     5.4547   6.9507   8.5723   8.5723   8.8397   8.9080   8.9080   9.1902
     9.4898   9.4898   9.9816   9.9852  10.1597  10.3903  10.4983  10.5627
    10.5627  10.7864  10.8747  10.9666  11.2130  11.2130  17.0796  17.0796
    19.1878  19.1878

          k = 0.0833 0.2500 0.2500 (  1352 PWs)   bands (ev):

     4.8478   8.1365   8.1365   8.4221   8.6772   8.7011   8.7011   9.4358
     9.8578   9.8578   9.8951   9.9409   9.9528  10.3957  10.6393  10.6957
    10.6957  10.7159  11.0843  11.0843  11.1080  13.0521  13.0521  16.2840
    18.6546  21.4480

          k = 0.0833 0.2500 0.4167 (  1359 PWs)   bands (ev):

     6.0184   7.3903   8.5975   8.7259   8.8407   8.9560   8.9635   9.2318
     9.3223   9.4966   9.6444   9.8129  10.1174  10.3893  10.4415  10.4647
    10.4883  10.8212  11.0116  11.0190  11.0263  11.5822  14.4035  16.1102
    18.0525  19.9697

          k = 0.0833 0.4167 0.4167 (  1351 PWs)   bands (ev):

     7.0045   8.0326   8.0326   8.4928   9.1524   9.1818   9.1819   9.2547
     9.3969   9.3969   9.4201   9.6702  10.0968  10.2552  10.2585  10.2585
    10.4736  10.7295  10.7295  10.8156  11.5381  12.5002  12.5002  13.9245
    19.4431  21.3671

          k = 0.2500 0.2500 0.2500 (  1346 PWs)   bands (ev):

     5.4320   8.2809   8.2809   8.2809   8.8630   8.8630   8.8630   9.4600
     9.7350   9.7350   9.7350   9.8807   9.8807  10.3698  10.3699  10.3699
    10.6425  10.6425  11.1763  11.1763  11.1763  13.6774  13.6774  13.6774
    19.4557  19.4557

          k = 0.2500 0.2500 0.4167 (  1359 PWs)   bands (ev):

     6.4760   7.6145   8.3890   8.3891   9.0857   9.0857   9.1827   9.4040
     9.6352   9.6352   9.6377   9.7855   9.9182  10.0942  10.2039  10.2039
    10.8267  10.9163  11.0990  11.0990  11.1144  11.7592  14.5997  14.5997
    17.3849  17.3849

          k = 0.2500 0.4167 0.4167 (  1364 PWs)   bands (ev):

     7.1958   7.8734   7.8734   8.1156   9.3571   9.4570   9.4570   9.7132
     9.7186   9.7560   9.7560   9.8393   9.8754   9.9663   9.9663   9.9813
    10.8104  11.0265  11.0265  11.0364  11.3600  12.4834  12.4834  13.7286
    17.0690  18.5475

          k = 0.4167 0.4167 0.4167 (  1358 PWs)   bands (ev):

     7.4520   7.7480   7.7480   7.7480   9.5993   9.5993   9.5993   9.7211
     9.7211   9.7741   9.7741   9.7741  10.4274  10.4274  10.4274  10.7230
    11.0584  11.0584  11.1405  11.1405  11.1405  12.4342  12.4342  12.4342
    16.7991  16.7991

     the Fermi energy is    12.6278 ev

!    total energy              =    -852.36829924 Ry
     total all-electron energy =    -13239.887364 Ry
     estimated scf accuracy    <          1.4E-10 Ry
     smearing contrib. (-TS)   =      -0.00115297 Ry
     internal energy E=F+TS    =    -852.36714628 Ry

     The total energy is F=E-TS. E is the sum of the following terms:
     one-electron contribution =    -111.40426284 Ry
     hartree contribution      =     122.25536301 Ry
     xc contribution           =    -178.53293082 Ry
     ewald contribution        =    -325.28617016 Ry
     one-center paw contrib.   =    -359.39914547 Ry

     convergence has been achieved in   9 iterations

     Forces acting on atoms (cartesian axes, Ry/au):

     atom    1 type  1   force =     0.00000000    0.00000000    0.00000000
     atom    2 type  1   force =     0.00000000    0.00000000    0.00000000
     atom    3 type  1   force =     0.00000000    0.00000000    0.00000000
     atom    4 type  1   force =     0.00000000    0.00000000    0.00000000
     The non-local contrib.  to forces
     atom    1 type  1   force =     0.00000000    0.00000000    0.00000000
     atom    2 type  1   force =     0.00000000    0.00000000    0.00000000
     atom    3 type  1   force =     0.00000000    0.00000000    0.00000000
     atom    4 type  1   force =     0.00000000    0.00000000    0.00000000
     The ionic contribution  to forces
     atom    1 type  1   force =    -0.00000000   -0.00000000   -0.00000000
     atom    2 type  1   force =     0.00000000    0.00000000   -0.00000000
     atom    3 type  1   force =     0.00000000   -0.00000000    0.00000000
     atom    4 type  1   force =    -0.00000000    0.00000000    0.00000000
     The local contribution  to forces
     atom    1 type  1   force =    -0.00000000    0.00000000   -0.00000000
     atom    2 type  1   force =     0.00000000    0.00000000   -0.00000000
     atom    3 type  1   force =     0.00000000   -0.00000000    0.00000000
     atom    4 type  1   force =     0.00000000    0.00000000    0.00000000
     The core correction contribution to forces
     atom    1 type  1   force =     0.00000000    0.00000000    0.00000000
     atom    2 type  1   force =     0.00000000    0.00000000    0.00000000
     atom    3 type  1   force =     0.00000000    0.00000000    0.00000000
     atom    4 type  1   force =     0.00000000    0.00000000    0.00000000
     The Hubbard contrib.    to forces
     atom    1 type  1   force =     0.00000000    0.00000000    0.00000000
     atom    2 type  1   force =     0.00000000    0.00000000    0.00000000
     atom    3 type  1   force =     0.00000000    0.00000000    0.00000000
     atom    4 type  1   force =     0.00000000    0.00000000    0.00000000
     The SCF correction term to forces
     atom    1 type  1   force =    -0.00000000   -0.00000000    0.00000000
     atom    2 type  1   force =    -0.00000000    0.00000000    0.00000000
     atom    3 type  1   force =    -0.00000000   -0.00000000   -0.00000000
     atom    4 type  1   force =    -0.00000000    0.00000000   -0.00000000

     Total force =     0.000000     Total SCF correction =     0.000000


     Computing stress (Cartesian axis) and pressure

          total   stress  (Ry/bohr**3)                   (kbar)     P=       15.49
   0.00010532   0.00000000   0.00000000           15.49        0.00        0.00
   0.00000000   0.00010532   0.00000000            0.00       15.49        0.00
   0.00000000   0.00000000   0.00010532            0.00        0.00       15.49


     Writing all to output data dir /Users/vittoriodibona/Desktop/Tutorial_LAMMPS/Esame/CopperQE/tmp/Cu_ecut_40Ry_k6.save/

     init_run     :     61.36s CPU     33.87s WALL (       1 calls)
     electrons    :   1887.25s CPU   1471.45s WALL (       1 calls)
     forces       :     96.07s CPU     49.40s WALL (       1 calls)
     stress       :     14.76s CPU      8.12s WALL (       1 calls)

     Called by init_run:
     wfcinit      :     40.64s CPU     23.03s WALL (       1 calls)
     potinit      :      0.43s CPU      0.29s WALL (       1 calls)
     hinit0       :      1.04s CPU      0.20s WALL (       1 calls)

     Called by electrons:
     c_bands      :   1589.35s CPU   1312.75s WALL (      10 calls)
     sum_band     :    116.10s CPU     64.55s WALL (      10 calls)
     v_of_rho     :      0.36s CPU      0.23s WALL (      10 calls)
     newd         :    197.47s CPU    100.94s WALL (      10 calls)
     PAW_pot      :      2.08s CPU      2.16s WALL (      10 calls)
     mix_rho      :      0.39s CPU      0.24s WALL (      10 calls)

     Called by c_bands:
     init_us_2    :      0.25s CPU      0.24s WALL (     230 calls)
     init_us_2:cp :      0.25s CPU      0.24s WALL (     230 calls)
     cegterg      :   1573.21s CPU   1303.41s WALL (     100 calls)

     Called by *egterg:
     cdiaghg      :    118.20s CPU     51.72s WALL (     388 calls)
     h_psi        :    527.88s CPU    742.41s WALL (     408 calls)
     s_psi        :     88.77s CPU     45.79s WALL (     408 calls)
     g_psi        :      0.01s CPU      0.01s WALL (     298 calls)

     Called by h_psi:
     h_psi:calbec :    339.71s CPU    653.53s WALL (     408 calls)
     vloc_psi     :    101.46s CPU     47.67s WALL (     408 calls)
     add_vuspsi   :     86.70s CPU     41.20s WALL (     408 calls)

     General routines
     calbec       :    486.05s CPU    730.48s WALL (     558 calls)
     fft          :      1.10s CPU      0.46s WALL (     154 calls)
     ffts         :      0.28s CPU      0.28s WALL (      20 calls)
     fftw         :    108.75s CPU     54.77s WALL (   17856 calls)
     interpolate  :      0.01s CPU      0.01s WALL (      10 calls)

     Parallel routines

     PWSCF        :  34m20.04s CPU  26m 3.38s WALL


   This run was terminated on:  18:13:45  22Jan2026            

=------------------------------------------------------------------------------=
   JOB DONE.
=------------------------------------------------------------------------------=
