
     Program PWSCF v.7.2 starts on 22Jan2026 at 19:20:19 

     This program is part of the open-source Quantum ESPRESSO suite
     for quantum simulation of materials; please cite
         "P. Giannozzi et al., J. Phys.:Condens. Matter 21 395502 (2009);
         "P. Giannozzi et al., J. Phys.:Condens. Matter 29 465901 (2017);
         "P. Giannozzi et al., J. Chem. Phys. 152 154105 (2020);
          URL http://www.quantum-espresso.org", 
     in publications or presentations arising from this work. More details at
     http://www.quantum-espresso.org/quote

     Parallel version (MPI), running on     4 processors

     MPI processes distributed on     1 nodes
     0 MiB available memory on the printing compute node when the environment starts

     Reading input from /Users/vittoriodibona/Desktop/Tutorial_LAMMPS/Esame/CopperQE/1_convergence/ecut/Cu_ecut_70Ry_k6.in

     Current dimensions of program PWSCF are:
     Max number of different atomic species (ntypx) = 10
     Max number of k-points (npk) =  40000
     Max angular momentum in pseudopotentials (lmaxx) =  4
     file Cu.pbe-dn-kjpaw_psl.1.0.0.UPF: wavefunction(s)  4S 3D renormalized
     Found identity + ( -0.5000 -0.5000  0.0000) symmetry
     This is a supercell, fractional translations are disabled

     R & G space division:  proc/nbgrp/npool/nimage =       4
     Subspace diagonalization in iterative solution of the eigenvalue problem:
     a serial algorithm will be used


     Parallelization info
     --------------------
     sticks:   dense  smooth     PW     G-vecs:    dense   smooth      PW
     Min         648     260     73                24888     6316     977
     Max         649     261     74                24893     6319     980
     Sum        2593    1041    293                99561    25269    3911

     Using Slab Decomposition



     bravais-lattice index     =            1
     lattice parameter (alat)  =       6.8219  a.u.
     unit-cell volume          =     317.4813 (a.u.)^3
     number of atoms/cell      =            4
     number of atomic types    =            1
     number of electrons       =        44.00
     number of Kohn-Sham states=           26
     kinetic-energy cutoff     =      70.0000  Ry
     charge density cutoff     =     700.0000  Ry
     scf convergence threshold =      1.0E-08
     mixing beta               =       0.7000
     number of iterations used =            8  plain     mixing
     Exchange-correlation= SLA  PW   PBX  PBC
                           (   1   4   3   4   0   0   0)

     celldm(1)=   6.821911  celldm(2)=   0.000000  celldm(3)=   0.000000
     celldm(4)=   0.000000  celldm(5)=   0.000000  celldm(6)=   0.000000

     crystal axes: (cart. coord. in units of alat)
               a(1) = (   1.000000   0.000000   0.000000 )  
               a(2) = (   0.000000   1.000000   0.000000 )  
               a(3) = (   0.000000   0.000000   1.000000 )  

     reciprocal axes: (cart. coord. in units 2 pi/alat)
               b(1) = (  1.000000  0.000000  0.000000 )  
               b(2) = (  0.000000  1.000000  0.000000 )  
               b(3) = (  0.000000  0.000000  1.000000 )  


     PseudoPot. # 1 for Cu read from file:
     /Users/vittoriodibona/Desktop/Tutorial_LAMMPS/Esame/CopperQE/pseudo/Cu.pbe-dn-kjpaw_psl.1.0.0.UPF
     MD5 check sum: cfffd1f38ee05704b3e17f46f1730a6f
     Pseudo is Projector augmented-wave + core cor, Zval = 11.0
     Generated using &quot;atomic&quot; code by A. Dal Corso  v.6.3
     Shape of augmentation charge: PSQ
     Using radial grid of 1199 points,  6 beta functions with: 
                l(1) =   0
                l(2) =   0
                l(3) =   1
                l(4) =   1
                l(5) =   2
                l(6) =   2
     Q(r) pseudized with 0 coefficients 


     atomic species   valence    mass     pseudopotential
        Cu            11.00    63.54600     Cu( 1.00)

     48 Sym. Ops., with inversion, found



   Cartesian axes

     site n.     atom                  positions (alat units)
         1           Cu  tau(   1) = (   0.0000000   0.0000000   0.0000000  )
         2           Cu  tau(   2) = (   0.5000000   0.5000000   0.0000000  )
         3           Cu  tau(   3) = (   0.5000000   0.0000000   0.5000000  )
         4           Cu  tau(   4) = (   0.0000000   0.5000000   0.5000000  )

     number of k points=    10  Marzari-Vanderbilt smearing, width (Ry)=  0.0200
                       cart. coord. in units 2pi/alat
        k(    1) = (   0.0833333   0.0833333   0.0833333), wk =   0.0740741
        k(    2) = (   0.0833333   0.0833333   0.2500000), wk =   0.2222222
        k(    3) = (   0.0833333   0.0833333   0.4166667), wk =   0.2222222
        k(    4) = (   0.0833333   0.2500000   0.2500000), wk =   0.2222222
        k(    5) = (   0.0833333   0.2500000   0.4166667), wk =   0.4444444
        k(    6) = (   0.0833333   0.4166667   0.4166667), wk =   0.2222222
        k(    7) = (   0.2500000   0.2500000   0.2500000), wk =   0.0740741
        k(    8) = (   0.2500000   0.2500000   0.4166667), wk =   0.2222222
        k(    9) = (   0.2500000   0.4166667   0.4166667), wk =   0.2222222
        k(   10) = (   0.4166667   0.4166667   0.4166667), wk =   0.0740741

     Dense  grid:    99561 G-vectors     FFT dimensions: (  60,  60,  60)

     Smooth grid:    25269 G-vectors     FFT dimensions: (  40,  40,  40)

     Estimated max dynamical RAM per process >      96.66 MB

     Estimated total dynamical RAM >     386.66 MB

     Initial potential from superposition of free atoms

     starting charge      43.9991, renormalised to      44.0000
     Starting wfcs are   36 randomized atomic wfcs
     Checking if some PAW data can be deallocated... 

     total cpu time spent up to now is       56.0 secs

     Self-consistent Calculation

     iteration #  1     ecut=    70.00 Ry     beta= 0.70
     Davidson diagonalization with overlap
     ethr =  1.00E-02,  avg # of iterations =  2.6

     Threshold (ethr) on eigenvalues was too large:
     Diagonalizing with lowered threshold

     Davidson diagonalization with overlap
     ethr =  3.99E-04,  avg # of iterations =  2.5

     total cpu time spent up to now is      283.6 secs

     total energy              =    -852.24682631 Ry
     estimated scf accuracy    <       0.23673388 Ry

     iteration #  2     ecut=    70.00 Ry     beta= 0.70
     Davidson diagonalization with overlap
     ethr =  5.38E-04,  avg # of iterations =  3.2

     total cpu time spent up to now is      429.2 secs

     total energy              =    -852.25890625 Ry
     estimated scf accuracy    <       0.80063679 Ry

     iteration #  3     ecut=    70.00 Ry     beta= 0.70
     Davidson diagonalization with overlap
     ethr =  5.38E-04,  avg # of iterations =  2.1

     total cpu time spent up to now is      561.2 secs

     total energy              =    -852.38324283 Ry
     estimated scf accuracy    <       0.00075121 Ry

     iteration #  4     ecut=    70.00 Ry     beta= 0.70
     Davidson diagonalization with overlap
     ethr =  1.71E-06,  avg # of iterations =  6.1

     total cpu time spent up to now is      792.4 secs

     total energy              =    -852.38434912 Ry
     estimated scf accuracy    <       0.00125233 Ry

     iteration #  5     ecut=    70.00 Ry     beta= 0.70
     Davidson diagonalization with overlap
     ethr =  1.71E-06,  avg # of iterations =  2.0

     total cpu time spent up to now is      918.5 secs

     total energy              =    -852.38448608 Ry
     estimated scf accuracy    <       0.00003380 Ry

     iteration #  6     ecut=    70.00 Ry     beta= 0.70
     Davidson diagonalization with overlap
     ethr =  7.68E-08,  avg # of iterations =  2.6

     total cpu time spent up to now is     1047.8 secs

     total energy              =    -852.38448985 Ry
     estimated scf accuracy    <       0.00000383 Ry

     iteration #  7     ecut=    70.00 Ry     beta= 0.70
     Davidson diagonalization with overlap
     ethr =  8.69E-09,  avg # of iterations =  3.6

     total cpu time spent up to now is     1198.5 secs

     total energy              =    -852.38449123 Ry
     estimated scf accuracy    <       0.00000153 Ry

     iteration #  8     ecut=    70.00 Ry     beta= 0.70
     Davidson diagonalization with overlap
     ethr =  3.48E-09,  avg # of iterations =  1.0

     total cpu time spent up to now is     1294.3 secs

     total energy              =    -852.38449122 Ry
     estimated scf accuracy    <       0.00000034 Ry

     iteration #  9     ecut=    70.00 Ry     beta= 0.70
     Davidson diagonalization with overlap
     ethr =  7.71E-10,  avg # of iterations =  2.0

     total cpu time spent up to now is     1414.0 secs

     End of self-consistent calculation

          k = 0.0833 0.0833 0.0833 (  3116 PWs)   bands (ev):

     3.5544   7.8988   7.8988   7.8988   8.3569   8.3569   8.3569   9.6509
     9.7512   9.7512  10.5225  10.5225  10.9440  10.9440  10.9440  11.0146
    11.0146  11.0146  11.2224  11.2224  11.2224  14.1083  14.1083  14.1083
    20.6259  20.6259

          k = 0.0833 0.0833 0.2500 (  3126 PWs)   bands (ev):

     4.2141   7.7888   8.1843   8.1843   8.5253   8.5392   8.5392   9.4817
     9.8799   9.8854  10.2184  10.2184  10.3765  10.5279  10.6125  10.8135
    10.8205  10.8205  11.1117  11.2026  11.2026  12.0168  15.3443  15.3443
    20.9589  20.9589

          k = 0.0833 0.0833 0.4167 (  3128 PWs)   bands (ev):

     5.4525   6.9457   8.5573   8.5573   8.8223   8.8924   8.8924   9.1728
     9.4745   9.4746   9.9639   9.9693  10.1418  10.3728  10.4804  10.5452
    10.5452  10.7678  10.8582  10.9481  11.1950  11.1950  17.0716  17.0716
    19.1803  19.1803

          k = 0.0833 0.2500 0.2500 (  3134 PWs)   bands (ev):

     4.8459   8.1244   8.1244   8.4068   8.6622   8.6846   8.6846   9.4184
     9.8427   9.8427   9.8772   9.9260   9.9346  10.3775  10.6215  10.6779
    10.6779  10.6976  11.0662  11.0662  11.0899  13.0415  13.0415  16.2761
    18.6477  21.4411

          k = 0.0833 0.2500 0.4167 (  3137 PWs)   bands (ev):

     6.0157   7.3846   8.5848   8.7106   8.8267   8.9393   8.9479   9.2147
     9.3066   9.4813   9.6274   9.7951  10.0994  10.3716  10.4239  10.4469
    10.4707  10.8035  10.9937  11.0010  11.0083  11.5665  14.3940  16.1019
    18.0447  19.9620

          k = 0.0833 0.4167 0.4167 (  3145 PWs)   bands (ev):

     7.0002   8.0244   8.0244   8.4809   9.1367   9.1665   9.1665   9.2384
     9.3796   9.3796   9.4048   9.6526  10.0790  10.2376  10.2410  10.2410
    10.4557  10.7116  10.7116  10.7976  11.5214  12.4868  12.4868  13.9142
    19.4350  21.3588

          k = 0.2500 0.2500 0.2500 (  3133 PWs)   bands (ev):

     5.4296   8.2677   8.2677   8.2677   8.8480   8.8480   8.8480   9.4435
     9.7196   9.7196   9.7196   9.8626   9.8626  10.3520  10.3520  10.3520
    10.6243  10.6243  11.1580  11.1580  11.1581  13.6674  13.6674  13.6674
    19.4487  19.4487

          k = 0.2500 0.2500 0.4167 (  3151 PWs)   bands (ev):

     6.4721   7.6065   8.3759   8.3759   9.0706   9.0706   9.1678   9.3886
     9.6199   9.6199   9.6207   9.7677   9.9002  10.0762  10.1863  10.1863
    10.8095  10.8980  11.0808  11.0808  11.0960  11.7451  14.5908  14.5908
    17.3774  17.3774

          k = 0.2500 0.4167 0.4167 (  3140 PWs)   bands (ev):

     7.1889   7.8625   7.8625   8.1032   9.3408   9.4408   9.4408   9.6977
     9.7039   9.7416   9.7416   9.8217   9.8613   9.9488   9.9488   9.9636
    10.7924  11.0084  11.0084  11.0182  11.3434  12.4714  12.4714  13.7195
    17.0607  18.5396

          k = 0.4167 0.4167 0.4167 (  3136 PWs)   bands (ev):

     7.4419   7.7361   7.7361   7.7361   9.5819   9.5819   9.5819   9.7033
     9.7033   9.7563   9.7563   9.7563  10.4140  10.4140  10.4140  10.7166
    11.0402  11.0402  11.1222  11.1222  11.1222  12.4255  12.4255  12.4255
    16.7902  16.7902

     the Fermi energy is    12.6158 ev

!    total energy              =    -852.38449125 Ry
     total all-electron energy =    -13239.903556 Ry
     estimated scf accuracy    <          9.7E-09 Ry
     smearing contrib. (-TS)   =      -0.00115636 Ry
     internal energy E=F+TS    =    -852.38333489 Ry

     The total energy is F=E-TS. E is the sum of the following terms:
     one-electron contribution =    -111.40818305 Ry
     hartree contribution      =     122.21350299 Ry
     xc contribution           =    -178.51323445 Ry
     ewald contribution        =    -325.28617016 Ry
     one-center paw contrib.   =    -359.38925023 Ry

     convergence has been achieved in   9 iterations

     Forces acting on atoms (cartesian axes, Ry/au):

     atom    1 type  1   force =     0.00000000    0.00000000    0.00000000
     atom    2 type  1   force =     0.00000000    0.00000000    0.00000000
     atom    3 type  1   force =     0.00000000    0.00000000    0.00000000
     atom    4 type  1   force =     0.00000000    0.00000000    0.00000000
     The non-local contrib.  to forces
     atom    1 type  1   force =     0.00000000    0.00000000    0.00000000
     atom    2 type  1   force =     0.00000000    0.00000000    0.00000000
     atom    3 type  1   force =     0.00000000    0.00000000    0.00000000
     atom    4 type  1   force =     0.00000000    0.00000000    0.00000000
     The ionic contribution  to forces
     atom    1 type  1   force =    -0.00000000   -0.00000000   -0.00000000
     atom    2 type  1   force =     0.00000000    0.00000000   -0.00000000
     atom    3 type  1   force =     0.00000000   -0.00000000    0.00000000
     atom    4 type  1   force =    -0.00000000    0.00000000    0.00000000
     The local contribution  to forces
     atom    1 type  1   force =     0.00000000    0.00000000    0.00000000
     atom    2 type  1   force =     0.00000000    0.00000000    0.00000000
     atom    3 type  1   force =     0.00000000   -0.00000000    0.00000000
     atom    4 type  1   force =     0.00000000    0.00000000    0.00000000
     The core correction contribution to forces
     atom    1 type  1   force =    -0.00000000   -0.00000000    0.00000000
     atom    2 type  1   force =     0.00000000    0.00000000    0.00000000
     atom    3 type  1   force =     0.00000000   -0.00000000    0.00000000
     atom    4 type  1   force =     0.00000000    0.00000000    0.00000000
     The Hubbard contrib.    to forces
     atom    1 type  1   force =     0.00000000    0.00000000    0.00000000
     atom    2 type  1   force =     0.00000000    0.00000000    0.00000000
     atom    3 type  1   force =     0.00000000    0.00000000    0.00000000
     atom    4 type  1   force =     0.00000000    0.00000000    0.00000000
     The SCF correction term to forces
     atom    1 type  1   force =     0.00000000   -0.00000000   -0.00000000
     atom    2 type  1   force =     0.00000000   -0.00000000   -0.00000000
     atom    3 type  1   force =     0.00000000   -0.00000000   -0.00000000
     atom    4 type  1   force =    -0.00000000    0.00000000   -0.00000000

     Total force =     0.000000     Total SCF correction =     0.000000


     Computing stress (Cartesian axis) and pressure

          total   stress  (Ry/bohr**3)                   (kbar)     P=       22.79
   0.00015496   0.00000000   0.00000000           22.79        0.00        0.00
   0.00000000   0.00015496   0.00000000            0.00       22.79        0.00
   0.00000000   0.00000000   0.00015496            0.00        0.00       22.79


     Writing all to output data dir /Users/vittoriodibona/Desktop/Tutorial_LAMMPS/Esame/CopperQE/tmp/Cu_ecut_70Ry_k6.save/

     init_run     :    101.43s CPU     55.68s WALL (       1 calls)
     electrons    :   2553.16s CPU   1358.00s WALL (       1 calls)
     forces       :    191.20s CPU     96.76s WALL (       1 calls)
     stress       :     22.33s CPU     11.31s WALL (       1 calls)

     Called by init_run:
     wfcinit      :     55.47s CPU     31.54s WALL (       1 calls)
     potinit      :      0.22s CPU      0.30s WALL (       1 calls)
     hinit0       :      0.47s CPU      0.60s WALL (       1 calls)

     Called by electrons:
     c_bands      :   1975.08s CPU   1059.87s WALL (      10 calls)
     sum_band     :    179.73s CPU     94.54s WALL (      10 calls)
     v_of_rho     :      0.89s CPU      0.48s WALL (      10 calls)
     newd         :    439.27s CPU    223.90s WALL (      10 calls)
     PAW_pot      :      1.81s CPU      1.88s WALL (      10 calls)
     mix_rho      :      0.29s CPU      0.14s WALL (      10 calls)

     Called by c_bands:
     init_us_2    :      0.38s CPU      0.25s WALL (     230 calls)
     init_us_2:cp :      0.38s CPU      0.25s WALL (     230 calls)
     cegterg      :   1959.43s CPU   1049.87s WALL (     100 calls)

     Called by *egterg:
     cdiaghg      :     99.82s CPU     47.49s WALL (     367 calls)
     h_psi        :    719.53s CPU    388.12s WALL (     387 calls)
     s_psi        :     83.37s CPU     44.16s WALL (     387 calls)
     g_psi        :      0.02s CPU      0.01s WALL (     277 calls)

     Called by h_psi:
     h_psi:calbec :    511.21s CPU    285.33s WALL (     387 calls)
     vloc_psi     :    127.88s CPU     57.34s WALL (     387 calls)
     add_vuspsi   :     80.36s CPU     45.44s WALL (     387 calls)

     General routines
     calbec       :    734.09s CPU    403.78s WALL (     537 calls)
     fft          :      0.88s CPU      0.48s WALL (     154 calls)
     ffts         :      0.60s CPU      0.28s WALL (      20 calls)
     fftw         :    147.92s CPU     64.92s WALL (   17072 calls)
     interpolate  :      0.03s CPU      0.04s WALL (      10 calls)

     Parallel routines

     PWSCF        :  47m48.55s CPU  25m22.26s WALL


   This run was terminated on:  19:45:41  22Jan2026            

=------------------------------------------------------------------------------=
   JOB DONE.
=------------------------------------------------------------------------------=
