
     Program PWSCF v.7.2 starts on 24Jan2026 at 16:17:45 

     This program is part of the open-source Quantum ESPRESSO suite
     for quantum simulation of materials; please cite
         "P. Giannozzi et al., J. Phys.:Condens. Matter 21 395502 (2009);
         "P. Giannozzi et al., J. Phys.:Condens. Matter 29 465901 (2017);
         "P. Giannozzi et al., J. Chem. Phys. 152 154105 (2020);
          URL http://www.quantum-espresso.org", 
     in publications or presentations arising from this work. More details at
     http://www.quantum-espresso.org/quote

     Parallel version (MPI), running on     1 processors

     MPI processes distributed on     1 nodes
     0 MiB available memory on the printing compute node when the environment starts

     Reading input from /Users/vittoriodibona/Desktop/Tutorial_LAMMPS/Esame/CopperQE/3_electronic/bands.in

     Current dimensions of program PWSCF are:
     Max number of different atomic species (ntypx) = 10
     Max number of k-points (npk) =  40000
     Max angular momentum in pseudopotentials (lmaxx) =  4

     Atomic positions and unit cell read from directory:
     /Users/vittoriodibona/Desktop/Tutorial_LAMMPS/Esame/CopperQE/3_electronic/tmp/Cu_fcc.save/

     file Cu.pbe-dn-kjpaw_psl.1.0.0.UPF: wavefunction(s)  4S 3D renormalized
     Found identity + ( -0.5000 -0.5000  0.0000) symmetry
     This is a supercell, fractional translations are disabled

     Subspace diagonalization in iterative solution of the eigenvalue problem:
     a serial algorithm will be used


     G-vector sticks info
     --------------------
     sticks:   dense  smooth     PW     G-vecs:    dense   smooth      PW
     Sum        2989    1201    373               123449    31343    5449

     Using Slab Decomposition



     bravais-lattice index     =            1
     lattice parameter (alat)  =       6.8584  a.u.
     unit-cell volume          =     322.6006 (a.u.)^3
     number of atoms/cell      =            4
     number of atomic types    =            1
     number of electrons       =        44.00
     number of Kohn-Sham states=           26
     kinetic-energy cutoff     =      80.0000  Ry
     charge density cutoff     =     800.0000  Ry
     Exchange-correlation= SLA  PW   PBX  PBC
                           (   1   4   3   4   0   0   0)

     celldm(1)=   6.858383  celldm(2)=   0.000000  celldm(3)=   0.000000
     celldm(4)=   0.000000  celldm(5)=   0.000000  celldm(6)=   0.000000

     crystal axes: (cart. coord. in units of alat)
               a(1) = (   1.000000   0.000000   0.000000 )  
               a(2) = (   0.000000   1.000000   0.000000 )  
               a(3) = (   0.000000   0.000000   1.000000 )  

     reciprocal axes: (cart. coord. in units 2 pi/alat)
               b(1) = (  1.000000  0.000000  0.000000 )  
               b(2) = (  0.000000  1.000000  0.000000 )  
               b(3) = (  0.000000  0.000000  1.000000 )  


     PseudoPot. # 1 for Cu read from file:
     /Users/vittoriodibona/Desktop/Tutorial_LAMMPS/Esame/CopperQE/pseudo/Cu.pbe-dn-kjpaw_psl.1.0.0.UPF
     MD5 check sum: cfffd1f38ee05704b3e17f46f1730a6f
     Pseudo is Projector augmented-wave + core cor, Zval = 11.0
     Generated using &quot;atomic&quot; code by A. Dal Corso  v.6.3
     Shape of augmentation charge: PSQ
     Using radial grid of 1199 points,  6 beta functions with: 
                l(1) =   0
                l(2) =   0
                l(3) =   1
                l(4) =   1
                l(5) =   2
                l(6) =   2
     Q(r) pseudized with 0 coefficients 


     atomic species   valence    mass     pseudopotential
        Cu            11.00    63.54600     Cu( 1.00)

     48 Sym. Ops., with inversion, found


                                    s                        frac. trans.

      isym =  1     identity                                     

 cryst.   s( 1) = (     1          0          0      )
                  (     0          1          0      )
                  (     0          0          1      )

 cart.    s( 1) = (  1.0000000  0.0000000  0.0000000 )
                  (  0.0000000  1.0000000  0.0000000 )
                  (  0.0000000  0.0000000  1.0000000 )


      isym =  2     180 deg rotation - cart. axis [0,0,1]        

 cryst.   s( 2) = (    -1          0          0      )
                  (     0         -1          0      )
                  (     0          0          1      )

 cart.    s( 2) = ( -1.0000000  0.0000000  0.0000000 )
                  (  0.0000000 -1.0000000  0.0000000 )
                  (  0.0000000  0.0000000  1.0000000 )


      isym =  3     180 deg rotation - cart. axis [0,1,0]        

 cryst.   s( 3) = (    -1          0          0      )
                  (     0          1          0      )
                  (     0          0         -1      )

 cart.    s( 3) = ( -1.0000000  0.0000000  0.0000000 )
                  (  0.0000000  1.0000000  0.0000000 )
                  (  0.0000000  0.0000000 -1.0000000 )


      isym =  4     180 deg rotation - cart. axis [1,0,0]        

 cryst.   s( 4) = (     1          0          0      )
                  (     0         -1          0      )
                  (     0          0         -1      )

 cart.    s( 4) = (  1.0000000  0.0000000  0.0000000 )
                  (  0.0000000 -1.0000000  0.0000000 )
                  (  0.0000000  0.0000000 -1.0000000 )


      isym =  5     180 deg rotation - cart. axis [1,1,0]        

 cryst.   s( 5) = (     0          1          0      )
                  (     1          0          0      )
                  (     0          0         -1      )

 cart.    s( 5) = (  0.0000000  1.0000000  0.0000000 )
                  (  1.0000000  0.0000000  0.0000000 )
                  (  0.0000000  0.0000000 -1.0000000 )


      isym =  6     180 deg rotation - cart. axis [1,-1,0]       

 cryst.   s( 6) = (     0         -1          0      )
                  (    -1          0          0      )
                  (     0          0         -1      )

 cart.    s( 6) = (  0.0000000 -1.0000000  0.0000000 )
                  ( -1.0000000  0.0000000  0.0000000 )
                  (  0.0000000  0.0000000 -1.0000000 )


      isym =  7      90 deg rotation - cart. axis [0,0,-1]       

 cryst.   s( 7) = (     0         -1          0      )
                  (     1          0          0      )
                  (     0          0          1      )

 cart.    s( 7) = (  0.0000000  1.0000000  0.0000000 )
                  ( -1.0000000  0.0000000  0.0000000 )
                  (  0.0000000  0.0000000  1.0000000 )


      isym =  8      90 deg rotation - cart. axis [0,0,1]        

 cryst.   s( 8) = (     0          1          0      )
                  (    -1          0          0      )
                  (     0          0          1      )

 cart.    s( 8) = (  0.0000000 -1.0000000  0.0000000 )
                  (  1.0000000  0.0000000  0.0000000 )
                  (  0.0000000  0.0000000  1.0000000 )


      isym =  9     180 deg rotation - cart. axis [1,0,1]        

 cryst.   s( 9) = (     0          0          1      )
                  (     0         -1          0      )
                  (     1          0          0      )

 cart.    s( 9) = (  0.0000000  0.0000000  1.0000000 )
                  (  0.0000000 -1.0000000  0.0000000 )
                  (  1.0000000  0.0000000  0.0000000 )


      isym = 10     180 deg rotation - cart. axis [-1,0,1]       

 cryst.   s(10) = (     0          0         -1      )
                  (     0         -1          0      )
                  (    -1          0          0      )

 cart.    s(10) = (  0.0000000  0.0000000 -1.0000000 )
                  (  0.0000000 -1.0000000  0.0000000 )
                  ( -1.0000000  0.0000000  0.0000000 )


      isym = 11      90 deg rotation - cart. axis [0,1,0]        

 cryst.   s(11) = (     0          0         -1      )
                  (     0          1          0      )
                  (     1          0          0      )

 cart.    s(11) = (  0.0000000  0.0000000  1.0000000 )
                  (  0.0000000  1.0000000  0.0000000 )
                  ( -1.0000000  0.0000000  0.0000000 )


      isym = 12      90 deg rotation - cart. axis [0,-1,0]       

 cryst.   s(12) = (     0          0          1      )
                  (     0          1          0      )
                  (    -1          0          0      )

 cart.    s(12) = (  0.0000000  0.0000000 -1.0000000 )
                  (  0.0000000  1.0000000  0.0000000 )
                  (  1.0000000  0.0000000  0.0000000 )


      isym = 13     180 deg rotation - cart. axis [0,1,1]        

 cryst.   s(13) = (    -1          0          0      )
                  (     0          0          1      )
                  (     0          1          0      )

 cart.    s(13) = ( -1.0000000  0.0000000  0.0000000 )
                  (  0.0000000  0.0000000  1.0000000 )
                  (  0.0000000  1.0000000  0.0000000 )


      isym = 14     180 deg rotation - cart. axis [0,1,-1]       

 cryst.   s(14) = (    -1          0          0      )
                  (     0          0         -1      )
                  (     0         -1          0      )

 cart.    s(14) = ( -1.0000000  0.0000000  0.0000000 )
                  (  0.0000000  0.0000000 -1.0000000 )
                  (  0.0000000 -1.0000000  0.0000000 )


      isym = 15      90 deg rotation - cart. axis [-1,0,0]       

 cryst.   s(15) = (     1          0          0      )
                  (     0          0         -1      )
                  (     0          1          0      )

 cart.    s(15) = (  1.0000000  0.0000000  0.0000000 )
                  (  0.0000000  0.0000000  1.0000000 )
                  (  0.0000000 -1.0000000  0.0000000 )


      isym = 16      90 deg rotation - cart. axis [1,0,0]        

 cryst.   s(16) = (     1          0          0      )
                  (     0          0          1      )
                  (     0         -1          0      )

 cart.    s(16) = (  1.0000000  0.0000000  0.0000000 )
                  (  0.0000000  0.0000000 -1.0000000 )
                  (  0.0000000  1.0000000  0.0000000 )


      isym = 17     120 deg rotation - cart. axis [-1,-1,-1]     

 cryst.   s(17) = (     0          0          1      )
                  (     1          0          0      )
                  (     0          1          0      )

 cart.    s(17) = (  0.0000000  1.0000000  0.0000000 )
                  (  0.0000000  0.0000000  1.0000000 )
                  (  1.0000000  0.0000000  0.0000000 )


      isym = 18     120 deg rotation - cart. axis [-1,1,1]       

 cryst.   s(18) = (     0          0         -1      )
                  (    -1          0          0      )
                  (     0          1          0      )

 cart.    s(18) = (  0.0000000 -1.0000000  0.0000000 )
                  (  0.0000000  0.0000000  1.0000000 )
                  ( -1.0000000  0.0000000  0.0000000 )


      isym = 19     120 deg rotation - cart. axis [1,1,-1]       

 cryst.   s(19) = (     0          0         -1      )
                  (     1          0          0      )
                  (     0         -1          0      )

 cart.    s(19) = (  0.0000000  1.0000000  0.0000000 )
                  (  0.0000000  0.0000000 -1.0000000 )
                  ( -1.0000000  0.0000000  0.0000000 )


      isym = 20     120 deg rotation - cart. axis [1,-1,1]       

 cryst.   s(20) = (     0          0          1      )
                  (    -1          0          0      )
                  (     0         -1          0      )

 cart.    s(20) = (  0.0000000 -1.0000000  0.0000000 )
                  (  0.0000000  0.0000000 -1.0000000 )
                  (  1.0000000  0.0000000  0.0000000 )


      isym = 21     120 deg rotation - cart. axis [1,1,1]        

 cryst.   s(21) = (     0          1          0      )
                  (     0          0          1      )
                  (     1          0          0      )

 cart.    s(21) = (  0.0000000  0.0000000  1.0000000 )
                  (  1.0000000  0.0000000  0.0000000 )
                  (  0.0000000  1.0000000  0.0000000 )


      isym = 22     120 deg rotation - cart. axis [-1,1,-1]      

 cryst.   s(22) = (     0         -1          0      )
                  (     0          0         -1      )
                  (     1          0          0      )

 cart.    s(22) = (  0.0000000  0.0000000  1.0000000 )
                  ( -1.0000000  0.0000000  0.0000000 )
                  (  0.0000000 -1.0000000  0.0000000 )


      isym = 23     120 deg rotation - cart. axis [1,-1,-1]      

 cryst.   s(23) = (     0         -1          0      )
                  (     0          0          1      )
                  (    -1          0          0      )

 cart.    s(23) = (  0.0000000  0.0000000 -1.0000000 )
                  ( -1.0000000  0.0000000  0.0000000 )
                  (  0.0000000  1.0000000  0.0000000 )


      isym = 24     120 deg rotation - cart. axis [-1,-1,1]      

 cryst.   s(24) = (     0          1          0      )
                  (     0          0         -1      )
                  (    -1          0          0      )

 cart.    s(24) = (  0.0000000  0.0000000 -1.0000000 )
                  (  1.0000000  0.0000000  0.0000000 )
                  (  0.0000000 -1.0000000  0.0000000 )


      isym = 25     inversion                                    

 cryst.   s(25) = (    -1          0          0      )
                  (     0         -1          0      )
                  (     0          0         -1      )

 cart.    s(25) = ( -1.0000000  0.0000000  0.0000000 )
                  (  0.0000000 -1.0000000  0.0000000 )
                  (  0.0000000  0.0000000 -1.0000000 )


      isym = 26     inv. 180 deg rotation - cart. axis [0,0,1]   

 cryst.   s(26) = (     1          0          0      )
                  (     0          1          0      )
                  (     0          0         -1      )

 cart.    s(26) = (  1.0000000  0.0000000  0.0000000 )
                  (  0.0000000  1.0000000  0.0000000 )
                  (  0.0000000  0.0000000 -1.0000000 )


      isym = 27     inv. 180 deg rotation - cart. axis [0,1,0]   

 cryst.   s(27) = (     1          0          0      )
                  (     0         -1          0      )
                  (     0          0          1      )

 cart.    s(27) = (  1.0000000  0.0000000  0.0000000 )
                  (  0.0000000 -1.0000000  0.0000000 )
                  (  0.0000000  0.0000000  1.0000000 )


      isym = 28     inv. 180 deg rotation - cart. axis [1,0,0]   

 cryst.   s(28) = (    -1          0          0      )
                  (     0          1          0      )
                  (     0          0          1      )

 cart.    s(28) = ( -1.0000000  0.0000000  0.0000000 )
                  (  0.0000000  1.0000000  0.0000000 )
                  (  0.0000000  0.0000000  1.0000000 )


      isym = 29     inv. 180 deg rotation - cart. axis [1,1,0]   

 cryst.   s(29) = (     0         -1          0      )
                  (    -1          0          0      )
                  (     0          0          1      )

 cart.    s(29) = (  0.0000000 -1.0000000  0.0000000 )
                  ( -1.0000000  0.0000000  0.0000000 )
                  (  0.0000000  0.0000000  1.0000000 )


      isym = 30     inv. 180 deg rotation - cart. axis [1,-1,0]  

 cryst.   s(30) = (     0          1          0      )
                  (     1          0          0      )
                  (     0          0          1      )

 cart.    s(30) = (  0.0000000  1.0000000  0.0000000 )
                  (  1.0000000  0.0000000  0.0000000 )
                  (  0.0000000  0.0000000  1.0000000 )


      isym = 31     inv.  90 deg rotation - cart. axis [0,0,-1]  

 cryst.   s(31) = (     0          1          0      )
                  (    -1          0          0      )
                  (     0          0         -1      )

 cart.    s(31) = (  0.0000000 -1.0000000  0.0000000 )
                  (  1.0000000  0.0000000  0.0000000 )
                  (  0.0000000  0.0000000 -1.0000000 )


      isym = 32     inv.  90 deg rotation - cart. axis [0,0,1]   

 cryst.   s(32) = (     0         -1          0      )
                  (     1          0          0      )
                  (     0          0         -1      )

 cart.    s(32) = (  0.0000000  1.0000000  0.0000000 )
                  ( -1.0000000  0.0000000  0.0000000 )
                  (  0.0000000  0.0000000 -1.0000000 )


      isym = 33     inv. 180 deg rotation - cart. axis [1,0,1]   

 cryst.   s(33) = (     0          0         -1      )
                  (     0          1          0      )
                  (    -1          0          0      )

 cart.    s(33) = (  0.0000000  0.0000000 -1.0000000 )
                  (  0.0000000  1.0000000  0.0000000 )
                  ( -1.0000000  0.0000000  0.0000000 )


      isym = 34     inv. 180 deg rotation - cart. axis [-1,0,1]  

 cryst.   s(34) = (     0          0          1      )
                  (     0          1          0      )
                  (     1          0          0      )

 cart.    s(34) = (  0.0000000  0.0000000  1.0000000 )
                  (  0.0000000  1.0000000  0.0000000 )
                  (  1.0000000  0.0000000  0.0000000 )


      isym = 35     inv.  90 deg rotation - cart. axis [0,1,0]   

 cryst.   s(35) = (     0          0          1      )
                  (     0         -1          0      )
                  (    -1          0          0      )

 cart.    s(35) = (  0.0000000  0.0000000 -1.0000000 )
                  (  0.0000000 -1.0000000  0.0000000 )
                  (  1.0000000  0.0000000  0.0000000 )


      isym = 36     inv.  90 deg rotation - cart. axis [0,-1,0]  

 cryst.   s(36) = (     0          0         -1      )
                  (     0         -1          0      )
                  (     1          0          0      )

 cart.    s(36) = (  0.0000000  0.0000000  1.0000000 )
                  (  0.0000000 -1.0000000  0.0000000 )
                  ( -1.0000000  0.0000000  0.0000000 )


      isym = 37     inv. 180 deg rotation - cart. axis [0,1,1]   

 cryst.   s(37) = (     1          0          0      )
                  (     0          0         -1      )
                  (     0         -1          0      )

 cart.    s(37) = (  1.0000000  0.0000000  0.0000000 )
                  (  0.0000000  0.0000000 -1.0000000 )
                  (  0.0000000 -1.0000000  0.0000000 )


      isym = 38     inv. 180 deg rotation - cart. axis [0,1,-1]  

 cryst.   s(38) = (     1          0          0      )
                  (     0          0          1      )
                  (     0          1          0      )

 cart.    s(38) = (  1.0000000  0.0000000  0.0000000 )
                  (  0.0000000  0.0000000  1.0000000 )
                  (  0.0000000  1.0000000  0.0000000 )


      isym = 39     inv.  90 deg rotation - cart. axis [-1,0,0]  

 cryst.   s(39) = (    -1          0          0      )
                  (     0          0          1      )
                  (     0         -1          0      )

 cart.    s(39) = ( -1.0000000  0.0000000  0.0000000 )
                  (  0.0000000  0.0000000 -1.0000000 )
                  (  0.0000000  1.0000000  0.0000000 )


      isym = 40     inv.  90 deg rotation - cart. axis [1,0,0]   

 cryst.   s(40) = (    -1          0          0      )
                  (     0          0         -1      )
                  (     0          1          0      )

 cart.    s(40) = ( -1.0000000  0.0000000  0.0000000 )
                  (  0.0000000  0.0000000  1.0000000 )
                  (  0.0000000 -1.0000000  0.0000000 )


      isym = 41     inv. 120 deg rotation - cart. axis [-1,-1,-1]

 cryst.   s(41) = (     0          0         -1      )
                  (    -1          0          0      )
                  (     0         -1          0      )

 cart.    s(41) = (  0.0000000 -1.0000000  0.0000000 )
                  (  0.0000000  0.0000000 -1.0000000 )
                  ( -1.0000000  0.0000000  0.0000000 )


      isym = 42     inv. 120 deg rotation - cart. axis [-1,1,1]  

 cryst.   s(42) = (     0          0          1      )
                  (     1          0          0      )
                  (     0         -1          0      )

 cart.    s(42) = (  0.0000000  1.0000000  0.0000000 )
                  (  0.0000000  0.0000000 -1.0000000 )
                  (  1.0000000  0.0000000  0.0000000 )


      isym = 43     inv. 120 deg rotation - cart. axis [1,1,-1]  

 cryst.   s(43) = (     0          0          1      )
                  (    -1          0          0      )
                  (     0          1          0      )

 cart.    s(43) = (  0.0000000 -1.0000000  0.0000000 )
                  (  0.0000000  0.0000000  1.0000000 )
                  (  1.0000000  0.0000000  0.0000000 )


      isym = 44     inv. 120 deg rotation - cart. axis [1,-1,1]  

 cryst.   s(44) = (     0          0         -1      )
                  (     1          0          0      )
                  (     0          1          0      )

 cart.    s(44) = (  0.0000000  1.0000000  0.0000000 )
                  (  0.0000000  0.0000000  1.0000000 )
                  ( -1.0000000  0.0000000  0.0000000 )


      isym = 45     inv. 120 deg rotation - cart. axis [1,1,1]   

 cryst.   s(45) = (     0         -1          0      )
                  (     0          0         -1      )
                  (    -1          0          0      )

 cart.    s(45) = (  0.0000000  0.0000000 -1.0000000 )
                  ( -1.0000000  0.0000000  0.0000000 )
                  (  0.0000000 -1.0000000  0.0000000 )


      isym = 46     inv. 120 deg rotation - cart. axis [-1,1,-1] 

 cryst.   s(46) = (     0          1          0      )
                  (     0          0          1      )
                  (    -1          0          0      )

 cart.    s(46) = (  0.0000000  0.0000000 -1.0000000 )
                  (  1.0000000  0.0000000  0.0000000 )
                  (  0.0000000  1.0000000  0.0000000 )


      isym = 47     inv. 120 deg rotation - cart. axis [1,-1,-1] 

 cryst.   s(47) = (     0          1          0      )
                  (     0          0         -1      )
                  (     1          0          0      )

 cart.    s(47) = (  0.0000000  0.0000000  1.0000000 )
                  (  1.0000000  0.0000000  0.0000000 )
                  (  0.0000000 -1.0000000  0.0000000 )


      isym = 48     inv. 120 deg rotation - cart. axis [-1,-1,1] 

 cryst.   s(48) = (     0         -1          0      )
                  (     0          0          1      )
                  (     1          0          0      )

 cart.    s(48) = (  0.0000000  0.0000000  1.0000000 )
                  ( -1.0000000  0.0000000  0.0000000 )
                  (  0.0000000  1.0000000  0.0000000 )


     point group O_h (m-3m) 
     there are 10 classes
     the character table:

       E     8C3   3C2   6C4   6C2'  i     8S6   3s_h  6S4   6s_d 
A_1g   1.00  1.00  1.00  1.00  1.00  1.00  1.00  1.00  1.00  1.00
A_2g   1.00  1.00  1.00 -1.00 -1.00  1.00  1.00  1.00 -1.00 -1.00
E_g    2.00 -1.00  2.00  0.00  0.00  2.00 -1.00  2.00  0.00  0.00
T_1g   3.00  0.00 -1.00  1.00 -1.00  3.00  0.00 -1.00  1.00 -1.00
T_2g   3.00  0.00 -1.00 -1.00  1.00  3.00  0.00 -1.00 -1.00  1.00
A_1u   1.00  1.00  1.00  1.00  1.00 -1.00 -1.00 -1.00 -1.00 -1.00
A_2u   1.00  1.00  1.00 -1.00 -1.00 -1.00 -1.00 -1.00  1.00  1.00
E_u    2.00 -1.00  2.00  0.00  0.00 -2.00  1.00 -2.00  0.00  0.00
T_1u   3.00  0.00 -1.00  1.00 -1.00 -3.00  0.00  1.00 -1.00  1.00
T_2u   3.00  0.00 -1.00 -1.00  1.00 -3.00  0.00  1.00  1.00 -1.00

     the symmetry operations in each class and the name of the first element:

     E        1
          identity                                               
     8C3     17   19   20   18   24   21   22   23
          120 deg rotation - cart. axis [-1,-1,-1]               
     3C2      2    4    3
          180 deg rotation - cart. axis [0,0,1]                  
     6C4      7    8   15   16   12   11
           90 deg rotation - cart. axis [0,0,-1]                 
     6C2'     5    6   14   13   10    9
          180 deg rotation - cart. axis [1,1,0]                  
     i       25
          inversion                                              
     8S6     41   43   44   42   48   45   46   47
          inv. 120 deg rotation - cart. axis [-1,-1,-1]          
     3s_h    26   28   27
          inv. 180 deg rotation - cart. axis [0,0,1]             
     6S4     31   32   39   40   36   35
          inv.  90 deg rotation - cart. axis [0,0,-1]            
     6s_d    29   30   38   37   34   33
          inv. 180 deg rotation - cart. axis [1,1,0]             

   Cartesian axes

     site n.     atom                  positions (alat units)
         1           Cu  tau(   1) = (   0.0000000   0.0000000   0.0000000  )
         2           Cu  tau(   2) = (   0.5000000   0.5000000   0.0000000  )
         3           Cu  tau(   3) = (   0.5000000   0.0000000   0.5000000  )
         4           Cu  tau(   4) = (   0.0000000   0.5000000   0.5000000  )

   Crystallographic axes

     site n.     atom                  positions (cryst. coord.)
         1           Cu  tau(   1) = (  0.0000000  0.0000000  0.0000000  )
         2           Cu  tau(   2) = (  0.5000000  0.5000000  0.0000000  )
         3           Cu  tau(   3) = (  0.5000000  0.0000000  0.5000000  )
         4           Cu  tau(   4) = (  0.0000000  0.5000000  0.5000000  )

     number of k points=    81  Marzari-Vanderbilt smearing, width (Ry)=  0.0100
                       cart. coord. in units 2pi/alat
        k(    1) = (   0.0000000   0.0000000   0.0000000), wk =   0.0246914
        k(    2) = (   0.0000000   0.0000000   0.0500000), wk =   0.0246914
        k(    3) = (   0.0000000   0.0000000   0.1000000), wk =   0.0246914
        k(    4) = (   0.0000000   0.0000000   0.1500000), wk =   0.0246914
        k(    5) = (   0.0000000   0.0000000   0.2000000), wk =   0.0246914
        k(    6) = (   0.0000000   0.0000000   0.2500000), wk =   0.0246914
        k(    7) = (   0.0000000   0.0000000   0.3000000), wk =   0.0246914
        k(    8) = (   0.0000000   0.0000000   0.3500000), wk =   0.0246914
        k(    9) = (   0.0000000   0.0000000   0.4000000), wk =   0.0246914
        k(   10) = (   0.0000000   0.0000000   0.4500000), wk =   0.0246914
        k(   11) = (   0.0000000   0.0000000   0.5000000), wk =   0.0246914
        k(   12) = (   0.0000000   0.0000000   0.5500000), wk =   0.0246914
        k(   13) = (   0.0000000   0.0000000   0.6000000), wk =   0.0246914
        k(   14) = (   0.0000000   0.0000000   0.6500000), wk =   0.0246914
        k(   15) = (   0.0000000   0.0000000   0.7000000), wk =   0.0246914
        k(   16) = (   0.0000000   0.0000000   0.7500000), wk =   0.0246914
        k(   17) = (   0.0000000   0.0000000   0.8000000), wk =   0.0246914
        k(   18) = (   0.0000000   0.0000000   0.8500000), wk =   0.0246914
        k(   19) = (   0.0000000   0.0000000   0.9000000), wk =   0.0246914
        k(   20) = (   0.0000000   0.0000000   0.9500000), wk =   0.0246914
        k(   21) = (   0.0000000   0.0000000   1.0000000), wk =   0.0246914
        k(   22) = (   0.0250000   0.0000000   1.0000000), wk =   0.0246914
        k(   23) = (   0.0500000   0.0000000   1.0000000), wk =   0.0246914
        k(   24) = (   0.0750000   0.0000000   1.0000000), wk =   0.0246914
        k(   25) = (   0.1000000   0.0000000   1.0000000), wk =   0.0246914
        k(   26) = (   0.1250000   0.0000000   1.0000000), wk =   0.0246914
        k(   27) = (   0.1500000   0.0000000   1.0000000), wk =   0.0246914
        k(   28) = (   0.1750000   0.0000000   1.0000000), wk =   0.0246914
        k(   29) = (   0.2000000   0.0000000   1.0000000), wk =   0.0246914
        k(   30) = (   0.2250000   0.0000000   1.0000000), wk =   0.0246914
        k(   31) = (   0.2500000   0.0000000   1.0000000), wk =   0.0246914
        k(   32) = (   0.2750000   0.0000000   1.0000000), wk =   0.0246914
        k(   33) = (   0.3000000   0.0000000   1.0000000), wk =   0.0246914
        k(   34) = (   0.3250000   0.0000000   1.0000000), wk =   0.0246914
        k(   35) = (   0.3500000   0.0000000   1.0000000), wk =   0.0246914
        k(   36) = (   0.3750000   0.0000000   1.0000000), wk =   0.0246914
        k(   37) = (   0.4000000   0.0000000   1.0000000), wk =   0.0246914
        k(   38) = (   0.4250000   0.0000000   1.0000000), wk =   0.0246914
        k(   39) = (   0.4500000   0.0000000   1.0000000), wk =   0.0246914
        k(   40) = (   0.4750000   0.0000000   1.0000000), wk =   0.0246914
        k(   41) = (   0.5000000   0.0000000   1.0000000), wk =   0.0246914
        k(   42) = (   0.5125000   0.0375000   0.9500000), wk =   0.0246914
        k(   43) = (   0.5250000   0.0750000   0.9000000), wk =   0.0246914
        k(   44) = (   0.5375000   0.1125000   0.8500000), wk =   0.0246914
        k(   45) = (   0.5500000   0.1500000   0.8000000), wk =   0.0246914
        k(   46) = (   0.5625000   0.1875000   0.7500000), wk =   0.0246914
        k(   47) = (   0.5750000   0.2250000   0.7000000), wk =   0.0246914
        k(   48) = (   0.5875000   0.2625000   0.6500000), wk =   0.0246914
        k(   49) = (   0.6000000   0.3000000   0.6000000), wk =   0.0246914
        k(   50) = (   0.6125000   0.3375000   0.5500000), wk =   0.0246914
        k(   51) = (   0.6250000   0.3750000   0.5000000), wk =   0.0246914
        k(   52) = (   0.6375000   0.4125000   0.4500000), wk =   0.0246914
        k(   53) = (   0.6500000   0.4500000   0.4000000), wk =   0.0246914
        k(   54) = (   0.6625000   0.4875000   0.3500000), wk =   0.0246914
        k(   55) = (   0.6750000   0.5250000   0.3000000), wk =   0.0246914
        k(   56) = (   0.6875000   0.5625000   0.2500000), wk =   0.0246914
        k(   57) = (   0.7000000   0.6000000   0.2000000), wk =   0.0246914
        k(   58) = (   0.7125000   0.6375000   0.1500000), wk =   0.0246914
        k(   59) = (   0.7250000   0.6750000   0.1000000), wk =   0.0246914
        k(   60) = (   0.7375000   0.7125000   0.0500000), wk =   0.0246914
        k(   61) = (   0.7500000   0.7500000   0.0000000), wk =   0.0246914
        k(   62) = (   0.7125000   0.7125000   0.0000000), wk =   0.0246914
        k(   63) = (   0.6750000   0.6750000   0.0000000), wk =   0.0246914
        k(   64) = (   0.6375000   0.6375000   0.0000000), wk =   0.0246914
        k(   65) = (   0.6000000   0.6000000   0.0000000), wk =   0.0246914
        k(   66) = (   0.5625000   0.5625000   0.0000000), wk =   0.0246914
        k(   67) = (   0.5250000   0.5250000   0.0000000), wk =   0.0246914
        k(   68) = (   0.4875000   0.4875000   0.0000000), wk =   0.0246914
        k(   69) = (   0.4500000   0.4500000   0.0000000), wk =   0.0246914
        k(   70) = (   0.4125000   0.4125000   0.0000000), wk =   0.0246914
        k(   71) = (   0.3750000   0.3750000   0.0000000), wk =   0.0246914
        k(   72) = (   0.3375000   0.3375000   0.0000000), wk =   0.0246914
        k(   73) = (   0.3000000   0.3000000   0.0000000), wk =   0.0246914
        k(   74) = (   0.2625000   0.2625000   0.0000000), wk =   0.0246914
        k(   75) = (   0.2250000   0.2250000   0.0000000), wk =   0.0246914
        k(   76) = (   0.1875000   0.1875000   0.0000000), wk =   0.0246914
        k(   77) = (   0.1500000   0.1500000   0.0000000), wk =   0.0246914
        k(   78) = (   0.1125000   0.1125000   0.0000000), wk =   0.0246914
        k(   79) = (   0.0750000   0.0750000   0.0000000), wk =   0.0246914
        k(   80) = (   0.0375000   0.0375000   0.0000000), wk =   0.0246914
        k(   81) = (   0.0000000   0.0000000   0.0000000), wk =   0.0246914

                       cryst. coord.
        k(    1) = (   0.0000000   0.0000000   0.0000000), wk =   0.0246914
        k(    2) = (   0.0000000   0.0000000   0.0500000), wk =   0.0246914
        k(    3) = (   0.0000000   0.0000000   0.1000000), wk =   0.0246914
        k(    4) = (   0.0000000   0.0000000   0.1500000), wk =   0.0246914
        k(    5) = (   0.0000000   0.0000000   0.2000000), wk =   0.0246914
        k(    6) = (   0.0000000   0.0000000   0.2500000), wk =   0.0246914
        k(    7) = (   0.0000000   0.0000000   0.3000000), wk =   0.0246914
        k(    8) = (   0.0000000   0.0000000   0.3500000), wk =   0.0246914
        k(    9) = (   0.0000000   0.0000000   0.4000000), wk =   0.0246914
        k(   10) = (   0.0000000   0.0000000   0.4500000), wk =   0.0246914
        k(   11) = (   0.0000000   0.0000000   0.5000000), wk =   0.0246914
        k(   12) = (   0.0000000   0.0000000   0.5500000), wk =   0.0246914
        k(   13) = (   0.0000000   0.0000000   0.6000000), wk =   0.0246914
        k(   14) = (   0.0000000   0.0000000   0.6500000), wk =   0.0246914
        k(   15) = (   0.0000000   0.0000000   0.7000000), wk =   0.0246914
        k(   16) = (   0.0000000   0.0000000   0.7500000), wk =   0.0246914
        k(   17) = (   0.0000000   0.0000000   0.8000000), wk =   0.0246914
        k(   18) = (   0.0000000   0.0000000   0.8500000), wk =   0.0246914
        k(   19) = (   0.0000000   0.0000000   0.9000000), wk =   0.0246914
        k(   20) = (   0.0000000   0.0000000   0.9500000), wk =   0.0246914
        k(   21) = (   0.0000000   0.0000000   1.0000000), wk =   0.0246914
        k(   22) = (   0.0250000   0.0000000   1.0000000), wk =   0.0246914
        k(   23) = (   0.0500000   0.0000000   1.0000000), wk =   0.0246914
        k(   24) = (   0.0750000   0.0000000   1.0000000), wk =   0.0246914
        k(   25) = (   0.1000000   0.0000000   1.0000000), wk =   0.0246914
        k(   26) = (   0.1250000   0.0000000   1.0000000), wk =   0.0246914
        k(   27) = (   0.1500000   0.0000000   1.0000000), wk =   0.0246914
        k(   28) = (   0.1750000   0.0000000   1.0000000), wk =   0.0246914
        k(   29) = (   0.2000000   0.0000000   1.0000000), wk =   0.0246914
        k(   30) = (   0.2250000   0.0000000   1.0000000), wk =   0.0246914
        k(   31) = (   0.2500000   0.0000000   1.0000000), wk =   0.0246914
        k(   32) = (   0.2750000   0.0000000   1.0000000), wk =   0.0246914
        k(   33) = (   0.3000000   0.0000000   1.0000000), wk =   0.0246914
        k(   34) = (   0.3250000   0.0000000   1.0000000), wk =   0.0246914
        k(   35) = (   0.3500000   0.0000000   1.0000000), wk =   0.0246914
        k(   36) = (   0.3750000   0.0000000   1.0000000), wk =   0.0246914
        k(   37) = (   0.4000000   0.0000000   1.0000000), wk =   0.0246914
        k(   38) = (   0.4250000   0.0000000   1.0000000), wk =   0.0246914
        k(   39) = (   0.4500000   0.0000000   1.0000000), wk =   0.0246914
        k(   40) = (   0.4750000   0.0000000   1.0000000), wk =   0.0246914
        k(   41) = (   0.5000000   0.0000000   1.0000000), wk =   0.0246914
        k(   42) = (   0.5125000   0.0375000   0.9500000), wk =   0.0246914
        k(   43) = (   0.5250000   0.0750000   0.9000000), wk =   0.0246914
        k(   44) = (   0.5375000   0.1125000   0.8500000), wk =   0.0246914
        k(   45) = (   0.5500000   0.1500000   0.8000000), wk =   0.0246914
        k(   46) = (   0.5625000   0.1875000   0.7500000), wk =   0.0246914
        k(   47) = (   0.5750000   0.2250000   0.7000000), wk =   0.0246914
        k(   48) = (   0.5875000   0.2625000   0.6500000), wk =   0.0246914
        k(   49) = (   0.6000000   0.3000000   0.6000000), wk =   0.0246914
        k(   50) = (   0.6125000   0.3375000   0.5500000), wk =   0.0246914
        k(   51) = (   0.6250000   0.3750000   0.5000000), wk =   0.0246914
        k(   52) = (   0.6375000   0.4125000   0.4500000), wk =   0.0246914
        k(   53) = (   0.6500000   0.4500000   0.4000000), wk =   0.0246914
        k(   54) = (   0.6625000   0.4875000   0.3500000), wk =   0.0246914
        k(   55) = (   0.6750000   0.5250000   0.3000000), wk =   0.0246914
        k(   56) = (   0.6875000   0.5625000   0.2500000), wk =   0.0246914
        k(   57) = (   0.7000000   0.6000000   0.2000000), wk =   0.0246914
        k(   58) = (   0.7125000   0.6375000   0.1500000), wk =   0.0246914
        k(   59) = (   0.7250000   0.6750000   0.1000000), wk =   0.0246914
        k(   60) = (   0.7375000   0.7125000   0.0500000), wk =   0.0246914
        k(   61) = (   0.7500000   0.7500000   0.0000000), wk =   0.0246914
        k(   62) = (   0.7125000   0.7125000   0.0000000), wk =   0.0246914
        k(   63) = (   0.6750000   0.6750000   0.0000000), wk =   0.0246914
        k(   64) = (   0.6375000   0.6375000   0.0000000), wk =   0.0246914
        k(   65) = (   0.6000000   0.6000000   0.0000000), wk =   0.0246914
        k(   66) = (   0.5625000   0.5625000   0.0000000), wk =   0.0246914
        k(   67) = (   0.5250000   0.5250000   0.0000000), wk =   0.0246914
        k(   68) = (   0.4875000   0.4875000   0.0000000), wk =   0.0246914
        k(   69) = (   0.4500000   0.4500000   0.0000000), wk =   0.0246914
        k(   70) = (   0.4125000   0.4125000   0.0000000), wk =   0.0246914
        k(   71) = (   0.3750000   0.3750000   0.0000000), wk =   0.0246914
        k(   72) = (   0.3375000   0.3375000   0.0000000), wk =   0.0246914
        k(   73) = (   0.3000000   0.3000000   0.0000000), wk =   0.0246914
        k(   74) = (   0.2625000   0.2625000   0.0000000), wk =   0.0246914
        k(   75) = (   0.2250000   0.2250000   0.0000000), wk =   0.0246914
        k(   76) = (   0.1875000   0.1875000   0.0000000), wk =   0.0246914
        k(   77) = (   0.1500000   0.1500000   0.0000000), wk =   0.0246914
        k(   78) = (   0.1125000   0.1125000   0.0000000), wk =   0.0246914
        k(   79) = (   0.0750000   0.0750000   0.0000000), wk =   0.0246914
        k(   80) = (   0.0375000   0.0375000   0.0000000), wk =   0.0246914
        k(   81) = (   0.0000000   0.0000000   0.0000000), wk =   0.0246914

     Dense  grid:   123449 G-vectors     FFT dimensions: (  64,  64,  64)

     Smooth grid:    31343 G-vectors     FFT dimensions: (  40,  40,  40)

     Dynamical RAM for                 wfc:       1.55 MB

     Dynamical RAM for     wfc (w. buffer):       1.55 MB

     Dynamical RAM for           str. fact:       1.88 MB

     Dynamical RAM for           local pot:       0.00 MB

     Dynamical RAM for          nlocal pot:       4.28 MB

     Dynamical RAM for                qrad:       2.27 MB

     Dynamical RAM for          rho,v,vnew:      11.65 MB

     Dynamical RAM for           G-vectors:       7.30 MB

     Dynamical RAM for          h,s,v(r/c):       0.03 MB

     Dynamical RAM for          <psi|beta>:       0.03 MB

     Dynamical RAM for      wfcinit/wfcrot:       4.31 MB

     Dynamical RAM for           addusdens:     357.90 MB

     Estimated static dynamical RAM per process >      42.70 MB

     Estimated max dynamical RAM per process >     400.60 MB

     The potential is recalculated from file :
     /Users/vittoriodibona/Desktop/Tutorial_LAMMPS/Esame/CopperQE/3_electronic/tmp/Cu_fcc.save/charge-density

     Starting wfcs are   36 randomized atomic wfcs
     Checking if some PAW data can be deallocated... 

     Band Structure Calculation
     CG style diagonalization

     Computing kpt #:     1  of    81
     total cpu time spent up to now is        3.2 secs

     Computing kpt #:     2  of    81
     total cpu time spent up to now is        7.5 secs

     Computing kpt #:     3  of    81
     total cpu time spent up to now is       11.3 secs

     Computing kpt #:     4  of    81
     total cpu time spent up to now is       15.0 secs

     Computing kpt #:     5  of    81
     total cpu time spent up to now is       17.8 secs

     Computing kpt #:     6  of    81
     total cpu time spent up to now is       20.5 secs

     Computing kpt #:     7  of    81
     total cpu time spent up to now is       23.4 secs

     Computing kpt #:     8  of    81
     total cpu time spent up to now is       26.8 secs

     Computing kpt #:     9  of    81
     c_bands:  2 eigenvalues not converged
     total cpu time spent up to now is       30.9 secs

     Computing kpt #:    10  of    81
     total cpu time spent up to now is       33.9 secs

     Computing kpt #:    11  of    81
     total cpu time spent up to now is       36.6 secs

     Computing kpt #:    12  of    81
     total cpu time spent up to now is       39.7 secs

     Computing kpt #:    13  of    81
     c_bands:  2 eigenvalues not converged
     total cpu time spent up to now is       43.8 secs

     Computing kpt #:    14  of    81
     total cpu time spent up to now is       47.7 secs

     Computing kpt #:    15  of    81
     total cpu time spent up to now is       51.8 secs

     Computing kpt #:    16  of    81
     total cpu time spent up to now is       55.0 secs

     Computing kpt #:    17  of    81
     total cpu time spent up to now is       57.9 secs

     Computing kpt #:    18  of    81
     total cpu time spent up to now is       61.3 secs

     Computing kpt #:    19  of    81
     total cpu time spent up to now is       64.2 secs

     Computing kpt #:    20  of    81
     total cpu time spent up to now is       67.5 secs

     Computing kpt #:    21  of    81
     total cpu time spent up to now is       70.1 secs

     Computing kpt #:    22  of    81
     c_bands:  1 eigenvalues not converged
     total cpu time spent up to now is       73.9 secs

     Computing kpt #:    23  of    81
     total cpu time spent up to now is       77.9 secs

     Computing kpt #:    24  of    81
     total cpu time spent up to now is       81.5 secs

     Computing kpt #:    25  of    81
     total cpu time spent up to now is       84.4 secs

     Computing kpt #:    26  of    81
     total cpu time spent up to now is       87.3 secs

     Computing kpt #:    27  of    81
     total cpu time spent up to now is       90.0 secs

     Computing kpt #:    28  of    81
     total cpu time spent up to now is       93.0 secs

     Computing kpt #:    29  of    81
     total cpu time spent up to now is       95.7 secs

     Computing kpt #:    30  of    81
     total cpu time spent up to now is       98.6 secs

     Computing kpt #:    31  of    81
     total cpu time spent up to now is      101.3 secs

     Computing kpt #:    32  of    81
     total cpu time spent up to now is      104.2 secs

     Computing kpt #:    33  of    81
     total cpu time spent up to now is      107.1 secs

     Computing kpt #:    34  of    81
     total cpu time spent up to now is      110.4 secs

     Computing kpt #:    35  of    81
     total cpu time spent up to now is      113.7 secs

     Computing kpt #:    36  of    81
     total cpu time spent up to now is      117.4 secs

     Computing kpt #:    37  of    81
     c_bands:  2 eigenvalues not converged
     total cpu time spent up to now is      121.6 secs

     Computing kpt #:    38  of    81
     total cpu time spent up to now is      125.3 secs

     Computing kpt #:    39  of    81
     total cpu time spent up to now is      128.4 secs

     Computing kpt #:    40  of    81
     total cpu time spent up to now is      131.1 secs

     Computing kpt #:    41  of    81
     total cpu time spent up to now is      133.7 secs

     Computing kpt #:    42  of    81
     total cpu time spent up to now is      136.8 secs

     Computing kpt #:    43  of    81
     total cpu time spent up to now is      139.9 secs

     Computing kpt #:    44  of    81
     total cpu time spent up to now is      143.0 secs

     Computing kpt #:    45  of    81
     total cpu time spent up to now is      145.6 secs

     Computing kpt #:    46  of    81
     total cpu time spent up to now is      148.3 secs

     Computing kpt #:    47  of    81
     total cpu time spent up to now is      154.4 secs

     Computing kpt #:    48  of    81
     total cpu time spent up to now is      158.4 secs

     Computing kpt #:    49  of    81
     total cpu time spent up to now is      163.1 secs

     Computing kpt #:    50  of    81
     total cpu time spent up to now is      167.8 secs

     Computing kpt #:    51  of    81
     total cpu time spent up to now is      170.9 secs

     Computing kpt #:    52  of    81
     total cpu time spent up to now is      174.1 secs

     Computing kpt #:    53  of    81
     total cpu time spent up to now is      177.0 secs

     Computing kpt #:    54  of    81
     total cpu time spent up to now is      180.0 secs

     Computing kpt #:    55  of    81
     total cpu time spent up to now is      184.0 secs

     Computing kpt #:    56  of    81
     total cpu time spent up to now is      186.9 secs

     Computing kpt #:    57  of    81
     total cpu time spent up to now is      189.9 secs

     Computing kpt #:    58  of    81
     total cpu time spent up to now is      192.8 secs

     Computing kpt #:    59  of    81
     total cpu time spent up to now is      195.8 secs

     Computing kpt #:    60  of    81
     total cpu time spent up to now is      198.8 secs

     Computing kpt #:    61  of    81
     total cpu time spent up to now is      201.5 secs

     Computing kpt #:    62  of    81
     total cpu time spent up to now is      204.2 secs

     Computing kpt #:    63  of    81
     total cpu time spent up to now is      206.9 secs

     Computing kpt #:    64  of    81
     total cpu time spent up to now is      209.7 secs

     Computing kpt #:    65  of    81
     total cpu time spent up to now is      213.0 secs

     Computing kpt #:    66  of    81
     c_bands:  1 eigenvalues not converged
     total cpu time spent up to now is      217.0 secs

     Computing kpt #:    67  of    81
     total cpu time spent up to now is      220.6 secs

     Computing kpt #:    68  of    81
     total cpu time spent up to now is      224.9 secs

     Computing kpt #:    69  of    81
     c_bands:  1 eigenvalues not converged
     total cpu time spent up to now is      228.9 secs

     Computing kpt #:    70  of    81
     total cpu time spent up to now is      231.9 secs

     Computing kpt #:    71  of    81
     total cpu time spent up to now is      234.7 secs

     Computing kpt #:    72  of    81
     total cpu time spent up to now is      237.5 secs

     Computing kpt #:    73  of    81
     total cpu time spent up to now is      240.3 secs

     Computing kpt #:    74  of    81
     total cpu time spent up to now is      243.0 secs

     Computing kpt #:    75  of    81
     total cpu time spent up to now is      246.1 secs

     Computing kpt #:    76  of    81
     total cpu time spent up to now is      249.5 secs

     Computing kpt #:    77  of    81
     total cpu time spent up to now is      253.4 secs

     Computing kpt #:    78  of    81
     total cpu time spent up to now is      256.1 secs

     Computing kpt #:    79  of    81
     total cpu time spent up to now is      259.3 secs

     Computing kpt #:    80  of    81
     total cpu time spent up to now is      263.1 secs

     Computing kpt #:    81  of    81
     total cpu time spent up to now is      265.6 secs

     ethr =  2.27E-11,  avg # of iterations = 35.7

     total cpu time spent up to now is      265.6 secs

     End of band structure calculation

          k = 0.0000 0.0000 0.0000 (  3887 PWs)   bands (ev):

     3.1479   7.6461   7.6461   7.6461   8.1060   8.1060   8.1060   9.4892
     9.4892   9.4892  10.3050  10.3050  10.8505  10.8505  10.8505  11.0103
    11.0103  11.0103  11.0104  11.0104  11.0104  13.9281  13.9281  13.9281
    19.4770  19.4770

          k = 0.0000 0.0000 0.0500 (  3891 PWs)   bands (ev):

     3.1781   7.6456   7.6603   7.6603   8.1140   8.1144   8.1144   9.4802
     9.4963   9.4963  10.2969  10.3083  10.8399  10.8400  10.8471  10.9538
    10.9538  10.9978  10.9978  11.0104  11.0104  13.7282  14.0116  14.0116
    19.4880  19.4880

          k = 0.0000 0.0000 0.1000 (  3887 PWs)   bands (ev):

     3.2684   7.6421   7.7023   7.7023   8.1380   8.1396   8.1396   9.4534
     9.5177   9.5177  10.2727  10.3181  10.8012  10.8012  10.8087  10.8087
    10.8368  10.9610  10.9610  11.0104  11.0104  13.2200  14.2451  14.2451
    19.5216  19.5216

          k = 0.0000 0.0000 0.1500 (  3879 PWs)   bands (ev):

     3.4180   7.6289   7.7699   7.7699   8.1775   8.1819   8.1819   9.4098
     9.5532   9.5532  10.2336  10.3341  10.5876  10.5876  10.7577  10.7577
    10.8201  10.9016  10.9016  11.0105  11.0105  12.5636  14.5932  14.5932
    19.5788  19.5788

          k = 0.0000 0.0000 0.2000 (  3903 PWs)   bands (ev):

     3.6259   7.5934   7.8594   7.8594   8.2316   8.2415   8.2415   9.3504
     9.6024   9.6024  10.1813  10.3441  10.3441  10.3561  10.6890  10.6890
    10.7973  10.8225  10.8225  11.0106  11.0106  11.8757  15.0245  15.0245
    19.6615  19.6615

          k = 0.0000 0.0000 0.2500 (  3880 PWs)   bands (ev):

     3.8902   7.5149   7.9653   7.9653   8.2992   8.3188   8.3188   9.2770
     9.6649   9.6649  10.0915  10.0915  10.1183  10.3834  10.6062  10.6062
    10.7273  10.7273  10.7691  11.0107  11.0108  11.2313  15.5178  15.5178
    19.7722  19.7722

          k = 0.0000 0.0000 0.3000 (  3904 PWs)   bands (ev):

     4.2080   7.3659   8.0797   8.0797   8.3788   8.4140   8.4140   9.1915
     9.7400   9.7400   9.8420   9.8420  10.0485  10.4155  10.5146  10.5147
    10.6199  10.6199  10.6852  10.7361  11.0108  11.0109  16.0603  16.0603
    19.9140  19.9140

          k = 0.0000 0.0000 0.3500 (  3896 PWs)   bands (ev):

     4.5752   7.1207   8.1923   8.1923   8.4687   8.5276   8.5276   9.0963
     9.6030   9.6030   9.8268   9.8268   9.9770  10.2772  10.4226  10.4226
    10.4516  10.5042  10.5042  10.6992  11.0110  11.0110  16.6441  16.6441
    20.0898  20.0898

          k = 0.0000 0.0000 0.4000 (  3900 PWs)   bands (ev):

     4.9858   6.7747   8.2899   8.2899   8.5668   8.6599   8.6599   8.9940
     9.3785   9.3785   9.9115   9.9243   9.9243  10.0185  10.3413  10.3413
    10.3841  10.3841  10.4908  10.6593  11.0110  11.0111  17.2642  17.2642
    20.0495  20.0496

          k = 0.0000 0.0000 0.4500 (  3908 PWs)   bands (ev):

     5.4302   6.3529   8.3573   8.3573   8.6710   8.8112   8.8112   8.8872
     9.1709   9.1709   9.8627   9.8874  10.0308  10.0308  10.2632  10.2632
    10.2843  10.2843  10.5321  10.6175  11.0111  11.0111  17.9171  17.9171
    19.3119  19.3119

          k = 0.0000 0.0000 0.5000 (  3948 PWs)   bands (ev):

     5.8936   5.8936   8.3816   8.3816   8.7786   8.7786   8.9816   8.9816
     8.9816   8.9816   9.8466   9.8466  10.1445  10.1445  10.1445  10.1445
    10.2635  10.2636  10.5747  10.5747  11.0111  11.0111  18.6003  18.6003
    18.6003  18.6003

          k = 0.0000 0.0000 0.5500 (  3908 PWs)   bands (ev):

     5.4302   6.3529   8.3573   8.3573   8.6710   8.8112   8.8112   8.8872
     9.1709   9.1709   9.8627   9.8874  10.0308  10.0308  10.2632  10.2632
    10.2843  10.2843  10.5321  10.6175  11.0111  11.0111  17.9171  17.9171
    19.3119  19.3119

          k = 0.0000 0.0000 0.6000 (  3900 PWs)   bands (ev):

     4.9858   6.7747   8.2899   8.2899   8.5668   8.6599   8.6599   8.9940
     9.3785   9.3785   9.9115   9.9243   9.9243  10.0185  10.3413  10.3413
    10.3841  10.3841  10.4908  10.6593  11.0110  11.0111  17.2642  17.2642
    20.0495  20.0497

          k = 0.0000 0.0000 0.6500 (  3896 PWs)   bands (ev):

     4.5752   7.1207   8.1923   8.1923   8.4687   8.5276   8.5276   9.0963
     9.6030   9.6030   9.8268   9.8268   9.9770  10.2772  10.4226  10.4226
    10.4516  10.5042  10.5042  10.6992  11.0110  11.0110  16.6441  16.6441
    20.0898  20.0898

          k = 0.0000 0.0000 0.7000 (  3904 PWs)   bands (ev):

     4.2080   7.3659   8.0797   8.0797   8.3788   8.4140   8.4140   9.1915
     9.7400   9.7400   9.8420   9.8420  10.0485  10.4155  10.5146  10.5147
    10.6199  10.6199  10.6852  10.7361  11.0108  11.0109  16.0603  16.0603
    19.9140  19.9140

          k = 0.0000 0.0000 0.7500 (  3880 PWs)   bands (ev):

     3.8902   7.5149   7.9653   7.9653   8.2992   8.3188   8.3188   9.2770
     9.6649   9.6649  10.0915  10.0915  10.1183  10.3834  10.6062  10.6062
    10.7273  10.7273  10.7691  11.0107  11.0108  11.2313  15.5178  15.5178
    19.7722  19.7722

          k = 0.0000 0.0000 0.8000 (  3903 PWs)   bands (ev):

     3.6259   7.5934   7.8594   7.8594   8.2316   8.2415   8.2415   9.3504
     9.6024   9.6024  10.1813  10.3441  10.3441  10.3561  10.6890  10.6890
    10.7973  10.8225  10.8225  11.0106  11.0106  11.8757  15.0245  15.0245
    19.6615  19.6615

          k = 0.0000 0.0000 0.8500 (  3879 PWs)   bands (ev):

     3.4180   7.6289   7.7699   7.7699   8.1775   8.1819   8.1819   9.4098
     9.5532   9.5532  10.2336  10.3341  10.5876  10.5876  10.7577  10.7577
    10.8201  10.9016  10.9016  11.0105  11.0105  12.5636  14.5932  14.5932
    19.5788  19.5788

          k = 0.0000 0.0000 0.9000 (  3887 PWs)   bands (ev):

     3.2684   7.6421   7.7023   7.7023   8.1380   8.1396   8.1396   9.4534
     9.5177   9.5177  10.2727  10.3181  10.8012  10.8012  10.8087  10.8087
    10.8368  10.9610  10.9610  11.0104  11.0104  13.2200  14.2451  14.2451
    19.5216  19.5216

          k = 0.0000 0.0000 0.9500 (  3891 PWs)   bands (ev):

     3.1781   7.6456   7.6603   7.6603   8.1140   8.1144   8.1144   9.4802
     9.4963   9.4963  10.2969  10.3083  10.8399  10.8400  10.8471  10.9538
    10.9538  10.9978  10.9978  11.0104  11.0104  13.7282  14.0116  14.0116
    19.4880  19.4880

          k = 0.0000 0.0000 1.0000 (  3887 PWs)   bands (ev):

     3.1479   7.6461   7.6461   7.6461   8.1060   8.1060   8.1060   9.4892
     9.4892   9.4892  10.3050  10.3050  10.8505  10.8505  10.8505  11.0103
    11.0103  11.0103  11.0104  11.0104  11.0104  13.9281  13.9281  13.9281
    19.4770  19.4770

          k = 0.0250 0.0000 1.0000 (  3887 PWs)   bands (ev):

     3.1555   7.6460   7.6496   7.6496   8.1080   8.1081   8.1081   9.4869
     9.4909   9.4909  10.3030  10.3058  10.8478  10.8479  10.8496  10.9959
    10.9959  11.0072  11.0072  11.0103  11.0104  13.8763  13.9493  13.9493
    19.4797  19.4797

          k = 0.0500 0.0000 1.0000 (  3891 PWs)   bands (ev):

     3.1781   7.6456   7.6603   7.6603   8.1140   8.1144   8.1144   9.4802
     9.4963   9.4963  10.2969  10.3083  10.8399  10.8400  10.8471  10.9538
    10.9538  10.9978  10.9978  11.0104  11.0104  13.7282  14.0116  14.0116
    19.4880  19.4880

          k = 0.0750 0.0000 1.0000 (  3883 PWs)   bands (ev):

     3.2157   7.6445   7.6779   7.6779   8.1241   8.1249   8.1249   9.4690
     9.5052   9.5052  10.2868  10.3124  10.8269  10.8269  10.8428  10.8874
    10.8874  10.9824  10.9824  11.0104  11.0104  13.5021  14.1117  14.1117
    19.5019  19.5019

          k = 0.1000 0.0000 1.0000 (  3887 PWs)   bands (ev):

     3.2684   7.6421   7.7023   7.7023   8.1380   8.1396   8.1396   9.4534
     9.5177   9.5177  10.2727  10.3181  10.8012  10.8012  10.8087  10.8087
    10.8368  10.9610  10.9610  11.0104  11.0104  13.2200  14.2451  14.2451
    19.5216  19.5216

          k = 0.1250 0.0000 1.0000 (  3879 PWs)   bands (ev):

     3.3358   7.6374   7.7331   7.7331   8.1559   8.1587   8.1587   9.4337
     9.5337   9.5337  10.2550  10.3253  10.6998  10.6998  10.7855  10.7855
    10.8293  10.9340  10.9340  11.0105  11.0105  12.9017  14.4070  14.4070
    19.5471  19.5471

          k = 0.1500 0.0000 1.0000 (  3879 PWs)   bands (ev):

     3.4180   7.6289   7.7699   7.7699   8.1775   8.1819   8.1819   9.4098
     9.5532   9.5532  10.2336  10.3341  10.5876  10.5876  10.7577  10.7577
    10.8201  10.9016  10.9016  11.0105  11.0105  12.5636  14.5932  14.5932
    19.5788  19.5788

          k = 0.1750 0.0000 1.0000 (  3899 PWs)   bands (ev):

     3.5148   7.6150   7.8122   7.8122   8.2028   8.2096   8.2096   9.3820
     9.5761   9.5761  10.2090  10.3444  10.4680  10.4680  10.7254  10.7254
    10.8095  10.8643  10.8643  11.0105  11.0106  12.2182  14.8000  14.8000
    19.6168  19.6168

          k = 0.2000 0.0000 1.0000 (  3903 PWs)   bands (ev):

     3.6259   7.5934   7.8594   7.8594   8.2316   8.2415   8.2415   9.3504
     9.6024   9.6024  10.1813  10.3441  10.3441  10.3561  10.6890  10.6890
    10.7973  10.8225  10.8225  11.0106  11.0106  11.8757  15.0245  15.0245
    19.6615  19.6615

          k = 0.2250 0.0000 1.0000 (  3895 PWs)   bands (ev):

     3.7512   7.5611   7.9107   7.9108   8.2638   8.2779   8.2779   9.3153
     9.6320   9.6320  10.1509  10.2180  10.2180  10.3691  10.6491  10.6491
    10.7767  10.7767  10.7839  11.0107  11.0107  11.5443  15.2643  15.2643
    19.7132  19.7132

          k = 0.2500 0.0000 1.0000 (  3880 PWs)   bands (ev):

     3.8902   7.5149   7.9653   7.9653   8.2992   8.3188   8.3188   9.2770
     9.6649   9.6649  10.0915  10.0915  10.1183  10.3834  10.6062  10.6062
    10.7273  10.7273  10.7691  11.0107  11.0108  11.2313  15.5178  15.5178
    19.7722  19.7722

          k = 0.2750 0.0000 1.0000 (  3892 PWs)   bands (ev):

     4.0426   7.4511   8.0220   8.0220   8.3376   8.3641   8.3641   9.2356
     9.7009   9.7009   9.9658   9.9658  10.0840  10.3989  10.5611  10.5611
    10.6749  10.6749  10.7531  10.9430  11.0108  11.0108  15.7835  15.7835
    19.8391  19.8391

          k = 0.3000 0.0000 1.0000 (  3904 PWs)   bands (ev):

     4.2080   7.3659   8.0797   8.0797   8.3788   8.4140   8.4140   9.1915
     9.7400   9.7400   9.8420   9.8420  10.0485  10.4155  10.5146  10.5147
    10.6199  10.6199  10.6852  10.7361  11.0108  11.0109  16.0603  16.0603
    19.9140  19.9140

          k = 0.3250 0.0000 1.0000 (  3904 PWs)   bands (ev):

     4.3857   7.2564   8.1370   8.1370   8.4226   8.4684   8.4684   9.1450
     9.7209   9.7209   9.7820   9.7820  10.0125  10.4331  10.4624  10.4681
    10.4681  10.5629  10.5629  10.7181  11.0109  11.0109  16.3474  16.3474
    19.9975  19.9975

          k = 0.3500 0.0000 1.0000 (  3896 PWs)   bands (ev):

     4.5752   7.1207   8.1923   8.1923   8.4687   8.5276   8.5276   9.0963
     9.6030   9.6030   9.8268   9.8268   9.9770  10.2772  10.4226  10.4226
    10.4516  10.5042  10.5042  10.6992  11.0110  11.0110  16.6441  16.6441
    20.0898  20.0898

          k = 0.3750 0.0000 1.0000 (  3904 PWs)   bands (ev):

     4.7756   6.9593   8.2439   8.2439   8.5169   8.5914   8.5914   9.0459
     9.4887   9.4887   9.8743   9.8743   9.9430  10.1298  10.3798  10.3798
    10.4445  10.4445  10.4708  10.6795  11.0110  11.0110  16.9499  16.9499
    20.1909  20.1909

          k = 0.4000 0.0000 1.0000 (  3900 PWs)   bands (ev):

     4.9858   6.7747   8.2899   8.2899   8.5668   8.6599   8.6599   8.9940
     9.3785   9.3785   9.9115   9.9243   9.9243  10.0185  10.3413  10.3413
    10.3841  10.3841  10.4908  10.6593  11.0110  11.0111  17.2642  17.2642
    20.0495  20.0495

          k = 0.4250 0.0000 1.0000 (  3912 PWs)   bands (ev):

     5.2045   6.5709   8.3283   8.3283   8.6183   8.7332   8.7332   8.9410
     9.2725   9.2725   9.8842   9.9392   9.9765   9.9765  10.3089  10.3089
    10.3236  10.3236  10.5112  10.6386  11.0111  11.0111  17.5867  17.5867
    19.6776  19.6776

          k = 0.4500 0.0000 1.0000 (  3908 PWs)   bands (ev):

     5.4302   6.3529   8.3573   8.3573   8.6710   8.8112   8.8112   8.8872
     9.1709   9.1709   9.8627   9.8874  10.0308  10.0308  10.2632  10.2632
    10.2843  10.2843  10.5321  10.6175  11.0111  11.0111  17.9171  17.9171
    19.3119  19.3119

          k = 0.4750 0.0000 1.0000 (  3908 PWs)   bands (ev):

     5.6607   6.1256   8.3754   8.3754   8.7245   8.8330   8.8941   8.8941
     9.0739   9.0739   9.8493   9.8580  10.0869  10.0869  10.2034  10.2034
    10.2688  10.2688  10.5534  10.5961  11.0111  11.0111  18.2550  18.2550
    18.9527  18.9527

          k = 0.5000 0.0000 1.0000 (  3948 PWs)   bands (ev):

     5.8936   5.8936   8.3816   8.3816   8.7786   8.7786   8.9816   8.9816
     8.9816   8.9816   9.8466   9.8466  10.1445  10.1445  10.1445  10.1445
    10.2635  10.2636  10.5747  10.5747  11.0111  11.0111  18.6003  18.6003
    18.6003  18.6003

          k = 0.5125 0.0375 0.9500 (  3914 PWs)   bands (ev):

     5.8160   6.0478   8.3970   8.3973   8.7573   8.8109   8.9222   8.9271
     9.0203   9.0257   9.7910   9.7925  10.0973  10.1530  10.1813  10.2427
    10.2646  10.2649  10.5760  10.5994  10.9905  10.9905  18.0263  18.1806
    18.4035  18.5659

          k = 0.5250 0.0750 0.9000 (  3911 PWs)   bands (ev):

     5.8163   6.2725   8.4415   8.4440   8.7496   8.8266   8.8408   8.8528
     9.0621   9.0790   9.6875   9.6992  10.0236  10.1229  10.2598  10.2621
    10.2757  10.4179  10.5949  10.6514  10.9366  10.9367  17.1045  17.4474
    17.9437  18.3050

          k = 0.5375 0.1125 0.8500 (  3900 PWs)   bands (ev):

     5.8917   6.5546   8.5044   8.5179   8.6988   8.7249   8.7610   8.9055
     9.1200   9.1488   9.5797   9.6227   9.9365  10.0650  10.2299  10.2360
    10.3699  10.6020  10.6261  10.7450  10.8724  10.8726  16.1561  16.6526
    17.4995  18.0199

          k = 0.5500 0.1500 0.8000 (  3897 PWs)   bands (ev):

     6.0348   6.8702   8.4830   8.5147   8.6492   8.6848   8.8014   8.9743
     9.1959   9.2355   9.4865   9.5713   9.8453   9.9907  10.1571  10.1667
    10.4444  10.6703  10.7080  10.8258  10.8264  10.9475  15.2531  15.8784
    17.1284  17.7858

          k = 0.5625 0.1875 0.7500 (  3890 PWs)   bands (ev):

     6.2332   7.1805   8.3084   8.3464   8.7713   8.7951   8.8880   9.0701
     9.2880   9.3379   9.4195   9.5430   9.7567   9.9087  10.0445  10.0547
    10.4943  10.7270  10.7655  10.8081  10.8102  11.2232  14.4133  15.1496
    16.8385  17.6231

          k = 0.5750 0.2250 0.7000 (  3893 PWs)   bands (ev):

     6.4686   7.4344   8.0973   8.1654   8.9151   8.9440   9.0336   9.2094
     9.3940   9.3948   9.4565   9.5308   9.6756   9.8259   9.9158   9.9223
    10.5278  10.7878  10.8048  10.8109  10.8153  11.5431  13.6410  14.4784
    16.6218  17.5342

          k = 0.5875 0.2625 0.6500 (  3898 PWs)   bands (ev):

     6.7173   7.5964   7.8790   7.9923   9.0571   9.1031   9.1853   9.4082
     9.4629   9.5182   9.5257   9.5943   9.6062   9.7490   9.7940   9.7947
    10.5606  10.8222  10.8290  10.8300  10.8439  11.9067  12.9363  13.8757
    16.4657  17.5152

          k = 0.6000 0.3000 0.6000 (  3906 PWs)   bands (ev):

     6.9551   7.6710   7.6710   7.8420   9.1769   9.2496   9.2496   9.5153
     9.5550   9.6453   9.6453   9.6648   9.6960   9.7067   9.7067   9.7518
    10.6184  10.8346  10.8429  10.8429  10.8937  12.2991  12.2992  13.3568
    16.3579  17.5616

          k = 0.6125 0.3375 0.5500 (  3899 PWs)   bands (ev):

     7.1656   7.4887   7.6852   7.7276   9.2614   9.2802   9.3628   9.4821
     9.5370   9.5913   9.6205   9.6262   9.8583   9.8965   9.9123   9.9164
    10.7422  10.8443  10.8474  10.8511  10.9677  11.7332  12.6342  12.9472
    16.2888  16.6337

          k = 0.6250 0.3750 0.5000 (  3896 PWs)   bands (ev):

     7.3452   7.3452   7.6595   7.6595   9.3090   9.3090   9.4368   9.4368
     9.5380   9.5380   9.5861   9.5861  10.0337  10.0337  10.0508  10.0508
    10.8419  10.8419  10.8500  10.8500  11.2609  11.2609  12.6889  12.6889
    16.2520  16.2520

          k = 0.6375 0.4125 0.4500 (  3892 PWs)   bands (ev):

     7.2505   7.5003   7.5998   7.6444   9.3203   9.3396   9.3815   9.4793
     9.5104   9.5554   9.5703   9.5762  10.0546  10.0566  10.0643  10.1751
    10.7640  10.8513  10.8544  10.8571  10.9986  11.8184  12.3268  12.6300
    16.2443  16.5727

          k = 0.6500 0.4500 0.4000 (  3901 PWs)   bands (ev):

     7.2105   7.4960   7.6408   7.6844   9.2924   9.3114   9.3725   9.4808
     9.5231   9.5727   9.5943   9.6001   9.9567   9.9742   9.9867  10.0435
    10.7532  10.8479  10.8511  10.8544  10.9833  11.7780  12.4789  12.7859
    16.2651  16.6013

          k = 0.6625 0.4875 0.3500 (  3890 PWs)   bands (ev):

     7.2273   7.3235   7.7743   7.7768   9.2248   9.2259   9.4083   9.4424
     9.5745   9.5897   9.6571   9.6575   9.7518   9.7618   9.8358   9.8369
    10.8134  10.8356  10.8404  10.8406  11.0991  11.2897  13.0989  13.1212
    16.3169  16.3413

          k = 0.6750 0.5250 0.3000 (  3891 PWs)   bands (ev):

     7.0520   7.2978   7.9035   7.9126   9.1222   9.1264   9.3443   9.4327
     9.5219   9.5242   9.6168   9.6543   9.6589   9.6678   9.7430   9.7451
    10.7691  10.8255  10.8298  10.8306  10.9653  11.2987  13.4895  13.5865
    16.4041  16.5098

          k = 0.6875 0.5625 0.2500 (  3894 PWs)   bands (ev):

     6.6741   7.4129   8.0234   8.0745   8.9923   9.0145   9.1421   9.2890
     9.4192   9.4762   9.5122   9.5207   9.6499   9.7636   9.8503   9.8541
    10.6041  10.8161  10.8173  10.8211  10.8276  11.5143  13.5613  14.1458
    16.5325  17.1708

          k = 0.7000 0.6000 0.2000 (  3893 PWs)   bands (ev):

     6.2237   7.5554   8.1160   8.2324   8.8481   8.8914   8.9366   9.1750
     9.3295   9.3692   9.4248   9.5589   9.6879   9.9020   9.9734   9.9839
    10.4244  10.7521  10.7968  10.8043  10.8099  11.7247  13.4375  14.7768
    16.7079  18.1772

          k = 0.7125 0.6375 0.1500 (  3896 PWs)   bands (ev):

     5.7541   7.6990   8.1500   8.3427   8.7081   8.7642   8.7686   9.1312
     9.2690   9.3560   9.4055   9.6022   9.7290  10.0675  10.1053  10.1307
    10.2719  10.6806  10.7706  10.7927  10.7940  11.9288  13.2426  15.4624
    16.9315  19.3831

          k = 0.7250 0.6750 0.1000 (  3896 PWs)   bands (ev):

     5.3096   7.8134   8.1064   8.3663   8.5931   8.6413   8.6490   9.1340
     9.3177   9.3956   9.4735   9.6345   9.7645  10.1556  10.2365  10.2543
    10.2891  10.6089  10.7395  10.7706  10.7858  12.1377  13.0334  16.1743
    17.1937  20.7116

          k = 0.7375 0.7125 0.0500 (  3890 PWs)   bands (ev):

     4.9193   7.8821   8.0127   8.3103   8.5126   8.5474   8.5534   9.1633
     9.4542   9.4956   9.6007   9.6537   9.7716  10.0955  10.3532  10.4457
    10.4496  10.5391  10.7094  10.7393  10.7906  12.3751  12.8372  16.7740
    17.5129  20.7224

          k = 0.7500 0.7500 0.0000 (  3894 PWs)   bands (ev):

     4.6012   7.9147   7.9147   8.2233   8.4529   8.4760   8.4760   9.2045
     9.6379   9.6379   9.6605   9.7380   9.7411  10.1008  10.4374  10.4735
    10.5753  10.5753  10.7240  10.7240  10.8164  12.6776  12.6776  16.7431
    18.1328  20.1933

          k = 0.7125 0.7125 0.0000 (  3888 PWs)   bands (ev):

     5.0420   7.9543   7.9543   8.3536   8.5304   8.5768   8.5768   9.1406
     9.4038   9.4038   9.5519   9.6465   9.8112  10.0576  10.3434  10.4805
    10.4805  10.5861  10.6439  10.6439  10.7559  12.5284  12.5284  16.9817
    17.4296  20.4457

          k = 0.6750 0.6750 0.0000 (  3916 PWs)   bands (ev):

     5.5238   7.9644   7.9644   8.4542   8.6129   8.6797   8.6797   9.0819
     9.2372   9.2373   9.3885   9.6084   9.8908  10.0195  10.2539  10.3749
    10.3749  10.5610  10.5610  10.6885  10.7357  12.4062  12.4062  15.8952
    18.1586  20.7654

          k = 0.6375 0.6375 0.0000 (  3894 PWs)   bands (ev):

     6.0340   7.9383   7.9383   8.4816   8.7233   8.7791   8.7791   9.0325
     9.1511   9.1511   9.2526   9.5487   9.9753   9.9894  10.1726  10.2631
    10.2631  10.4796  10.4796  10.6148  10.9250  12.3098  12.3098  14.8906
    18.9279  21.1553

          k = 0.6000 0.6000 0.0000 (  3900 PWs)   bands (ev):

     6.5547   7.8868   7.8868   8.4224   8.8525   8.8679   8.8679   8.9960
     9.1347   9.1348   9.1444   9.4707   9.9698  10.0633  10.1024  10.1532
    10.1532  10.4057  10.4057  10.5355  11.1614  12.2380  12.2380  13.9844
    19.7362  21.6208

          k = 0.5625 0.5625 0.0000 (  3912 PWs)   bands (ev):

     7.0613   7.8332   7.8332   8.2708   8.9376   8.9376   8.9760   8.9844
     9.0637   9.1583   9.1583   9.3772   9.9628  10.0453  10.0579  10.0580
    10.1535  10.3469  10.3469  10.4517  11.4602  12.1896  12.1897  13.1929
    20.5829  22.1571

          k = 0.5250 0.5250 0.0000 (  3908 PWs)   bands (ev):

     7.5234   7.7981   7.7981   8.0172   8.9753   8.9789   8.9789   9.0094
     9.1122   9.1866   9.1866   9.2707   9.9699   9.9960   9.9960  10.0028
    10.2444  10.3117  10.3117  10.3643  11.8438  12.1639  12.1639  12.5291
    21.4675  22.0907

          k = 0.4875 0.4875 0.0000 (  3904 PWs)   bands (ev):

     7.6619   7.7928   7.7928   7.9096   8.9800   8.9850   8.9850   8.9969
     9.1533   9.1917   9.1917   9.2326   9.9756   9.9863   9.9863   9.9921
    10.2746  10.3064  10.3065  10.3346  11.9949  12.1603  12.1603  12.3370
    21.7707  22.0813

          k = 0.4500 0.4500 0.0000 (  3906 PWs)   bands (ev):

     7.2219   7.8187   7.8187   8.1979   8.9549   8.9549   8.9734   9.0276
     9.0427   9.1688   9.1688   9.3431   9.9636  10.0295  10.0325  10.0325
    10.1838  10.3322  10.3322  10.4229  11.5774  12.1786  12.1786  12.9571
    20.8736  22.1286

          k = 0.4125 0.4125 0.0000 (  3892 PWs)   bands (ev):

     6.7265   7.8680   7.8680   8.3827   8.8937   8.8937   8.8966   8.9874
     9.1145   9.1399   9.1399   9.4412   9.9660  10.0818  10.0932  10.1190
    10.1190  10.3840  10.3840  10.5081  11.2531  12.2193  12.2193  13.7071
    20.0142  21.7935

          k = 0.3750 0.3750 0.0000 (  3896 PWs)   bands (ev):

     6.2074   7.9229   7.9229   8.4715   8.7654   8.8103   8.8103   9.0187
     9.1391   9.1391   9.2134   9.5246   9.9816  10.0043  10.1479  10.2258
    10.2258  10.4538  10.4538  10.5889  10.9980  12.2832  12.2832  14.5768
    19.1930  21.3018

          k = 0.3375 0.3375 0.0000 (  3922 PWs)   bands (ev):

     5.6915   7.9596   7.9596   8.4729   8.6462   8.7135   8.7135   9.0642
     9.1996   9.1996   9.3401   9.5907   9.9184  10.0084  10.2258  10.3380
    10.3380  10.5334  10.5334  10.6646  10.7941  12.3713  12.3713  15.5504
    18.4106  20.8873

          k = 0.3000 0.3000 0.0000 (  3894 PWs)   bands (ev):

     5.1986   7.9616   7.9616   8.3926   8.5562   8.6111   8.6111   9.1202
     9.3397   9.3398   9.4944   9.6364   9.8371  10.0441  10.3129  10.4463
    10.4463  10.6164  10.6164  10.6318  10.7342  12.4847  12.4848  16.6114
    17.6680  20.5448

          k = 0.2625 0.2625 0.0000 (  3886 PWs)   bands (ev):

     4.7430   7.9303   7.9303   8.2679   8.4791   8.5091   8.5091   9.1829
     9.5538   9.5538   9.6586   9.6753   9.7616  10.0860  10.4059  10.5070
    10.5451  10.5451  10.6978  10.6978  10.7970  12.6248  12.6248  16.9671
    17.7434  20.2698

          k = 0.2250 0.2250 0.0000 (  3896 PWs)   bands (ev):

     4.3344   7.8788   7.8788   8.1334   8.3997   8.4123   8.4123   9.2481
     9.6561   9.6933   9.8191   9.8191   9.8804  10.1310  10.4182  10.5006
    10.6313  10.6313  10.7741  10.7741  10.8525  12.7926  12.7927  16.3105
    18.9185  20.0700

          k = 0.1875 0.1875 0.0000 (  3892 PWs)   bands (ev):

     3.9799   7.8199   7.8199   8.0030   8.3209   8.3246   8.3246   9.3118
     9.6320   9.6333  10.1055  10.1077  10.1077  10.1760  10.3616  10.5926
    10.7039  10.7039  10.8425  10.8425  10.9001  12.9890  12.9890  15.7031
    19.7339  20.3276

          k = 0.1500 0.1500 0.0000 (  3888 PWs)   bands (ev):

     3.6844   7.7631   7.7631   7.8845   8.2488   8.2489   8.2489   9.3702
     9.5826   9.5948  10.2179  10.3300  10.3431  10.3901  10.3901  10.6770
    10.7629  10.7629  10.9009  10.9009  10.9394  13.2121  13.2121  15.1524
    19.6783  21.5294

          k = 0.1125 0.1125 0.0000 (  3886 PWs)   bands (ev):

     3.4514   7.7142   7.7142   7.7847   8.1877   8.1877   8.1885   9.4198
     9.5423   9.5545  10.2540  10.3145  10.5801  10.6367  10.6367  10.7490
    10.8111  10.8111  10.9480  10.9480  10.9703  13.4522  13.4522  14.6717
    19.5907  20.7328

          k = 0.0750 0.0750 0.0000 (  3877 PWs)   bands (ev):

     3.2833   7.6770   7.6770   7.7092   8.1427   8.1427   8.1433   9.4575
     9.5130   9.5200  10.2817  10.3079  10.7945  10.8011  10.8011  10.8040
    10.8720  10.8720  10.9824  10.9824  10.9925  13.6837  13.6837  14.2833
    19.5271  20.0705

          k = 0.0375 0.0375 0.0000 (  3891 PWs)   bands (ev):

     3.1819   7.6539   7.6539   7.6621   8.1152   8.1152   8.1154   9.4811
     9.4951   9.4971  10.2991  10.3056  10.8387  10.8421  10.8421  10.9514
    10.9712  10.9712  11.0033  11.0033  11.0059  13.8605  13.8605  14.0219
    19.4894  19.6322

          k = 0.0000 0.0000 0.0000 (  3887 PWs)   bands (ev):

     3.1479   7.6461   7.6461   7.6461   8.1060   8.1060   8.1060   9.4892
     9.4892   9.4892  10.3050  10.3050  10.8505  10.8505  10.8505  11.0103
    11.0103  11.0103  11.0104  11.0104  11.0104  13.9281  13.9281  13.9281
    19.4770  19.4770

     Writing all to output data dir /Users/vittoriodibona/Desktop/Tutorial_LAMMPS/Esame/CopperQE/3_electronic/tmp/Cu_fcc.save/

     init_run     :      3.21s CPU      1.40s WALL (       1 calls)
     electrons    :   1898.86s CPU    264.06s WALL (       1 calls)

     Called by init_run:
     wfcinit      :      0.00s CPU      0.00s WALL (       1 calls)
     wfcinit:atom :      1.10s CPU      0.17s WALL (      81 calls)
     wfcinit:wfcr :     29.67s CPU      5.95s WALL (      81 calls)
     potinit      :      0.51s CPU      0.52s WALL (       1 calls)
     hinit0       :      1.52s CPU      0.51s WALL (       1 calls)

     Called by electrons:
     c_bands      :   1898.84s CPU    264.06s WALL (       1 calls)
     v_of_rho     :      0.09s CPU      0.10s WALL (       1 calls)
     v_h          :      0.01s CPU      0.01s WALL (       1 calls)
     v_xc         :      0.09s CPU      0.09s WALL (       1 calls)
     newd         :      0.84s CPU      0.27s WALL (       1 calls)
     PAW_pot      :      0.40s CPU      0.40s WALL (       1 calls)

     Called by c_bands:
     init_us_2    :      0.90s CPU      0.13s WALL (      81 calls)
     init_us_2:cp :      0.90s CPU      0.13s WALL (      81 calls)
     ccgdiagg     :   1801.69s CPU    246.87s WALL (     258 calls)
     wfcrot       :     89.37s CPU     16.02s WALL (     258 calls)

     Called by sum_band:

     Called by *cgdiagg:
     h_psi        :   1386.54s CPU    189.91s WALL (   68629 calls)
     s_psi        :    221.47s CPU     32.75s WALL (  137000 calls)

     Called by h_psi:
     h_psi:calbec :    141.35s CPU     20.39s WALL (   68629 calls)
     vloc_psi     :   1075.72s CPU    145.84s WALL (   68629 calls)
     add_vuspsi   :    163.33s CPU     22.83s WALL (   68629 calls)
     hs_1psi      :   1422.62s CPU    192.11s WALL (   68371 calls)
     s_1psi       :    206.69s CPU     31.09s WALL (   68371 calls)

     General routines
     calbec       :    236.41s CPU     34.63s WALL (  137000 calls)
     fft          :      0.06s CPU      0.06s WALL (      13 calls)
     ffts         :      0.00s CPU      0.00s WALL (       1 calls)
     fftw         :    864.04s CPU    116.57s WALL (  151778 calls)
     interpolate  :      0.01s CPU      0.01s WALL (       1 calls)
     davcio       :      0.72s CPU      0.09s WALL (     162 calls)

     Parallel routines

     PAW routines
     PAW_pot      :      0.40s CPU      0.40s WALL (       1 calls)

     PWSCF        :  31m43.76s CPU   4m25.83s WALL


   This run was terminated on:  16:22:10  24Jan2026            

=------------------------------------------------------------------------------=
   JOB DONE.
=------------------------------------------------------------------------------=
