
     Program PWSCF v.7.2 starts on 24Jan2026 at 16:23:57 

     This program is part of the open-source Quantum ESPRESSO suite
     for quantum simulation of materials; please cite
         "P. Giannozzi et al., J. Phys.:Condens. Matter 21 395502 (2009);
         "P. Giannozzi et al., J. Phys.:Condens. Matter 29 465901 (2017);
         "P. Giannozzi et al., J. Chem. Phys. 152 154105 (2020);
          URL http://www.quantum-espresso.org", 
     in publications or presentations arising from this work. More details at
     http://www.quantum-espresso.org/quote

     Parallel version (MPI), running on     1 processors

     MPI processes distributed on     1 nodes
     0 MiB available memory on the printing compute node when the environment starts

     Reading input from /Users/vittoriodibona/Desktop/Tutorial_LAMMPS/Esame/CopperQE/3_electronic/nscf_dos.in

     Current dimensions of program PWSCF are:
     Max number of different atomic species (ntypx) = 10
     Max number of k-points (npk) =  40000
     Max angular momentum in pseudopotentials (lmaxx) =  4

     Atomic positions and unit cell read from directory:
     /Users/vittoriodibona/Desktop/Tutorial_LAMMPS/Esame/CopperQE/3_electronic/tmp/Cu_fcc.save/

     file Cu.pbe-dn-kjpaw_psl.1.0.0.UPF: wavefunction(s)  4S 3D renormalized
     Found identity + ( -0.5000 -0.5000  0.0000) symmetry
     This is a supercell, fractional translations are disabled
     [opt_tetra]  Optimized tetrahedron method is used.

     Subspace diagonalization in iterative solution of the eigenvalue problem:
     a serial algorithm will be used


     G-vector sticks info
     --------------------
     sticks:   dense  smooth     PW     G-vecs:    dense   smooth      PW
     Sum        2989    1201    349               123449    31343    4945

     Using Slab Decomposition



     bravais-lattice index     =            1
     lattice parameter (alat)  =       6.8584  a.u.
     unit-cell volume          =     322.6006 (a.u.)^3
     number of atoms/cell      =            4
     number of atomic types    =            1
     number of electrons       =        44.00
     number of Kohn-Sham states=           26
     kinetic-energy cutoff     =      80.0000  Ry
     charge density cutoff     =     800.0000  Ry
     Exchange-correlation= SLA  PW   PBX  PBC
                           (   1   4   3   4   0   0   0)

     celldm(1)=   6.858383  celldm(2)=   0.000000  celldm(3)=   0.000000
     celldm(4)=   0.000000  celldm(5)=   0.000000  celldm(6)=   0.000000

     crystal axes: (cart. coord. in units of alat)
               a(1) = (   1.000000   0.000000   0.000000 )  
               a(2) = (   0.000000   1.000000   0.000000 )  
               a(3) = (   0.000000   0.000000   1.000000 )  

     reciprocal axes: (cart. coord. in units 2 pi/alat)
               b(1) = (  1.000000  0.000000  0.000000 )  
               b(2) = (  0.000000  1.000000  0.000000 )  
               b(3) = (  0.000000  0.000000  1.000000 )  


     PseudoPot. # 1 for Cu read from file:
     /Users/vittoriodibona/Desktop/Tutorial_LAMMPS/Esame/CopperQE/pseudo/Cu.pbe-dn-kjpaw_psl.1.0.0.UPF
     MD5 check sum: cfffd1f38ee05704b3e17f46f1730a6f
     Pseudo is Projector augmented-wave + core cor, Zval = 11.0
     Generated using &quot;atomic&quot; code by A. Dal Corso  v.6.3
     Shape of augmentation charge: PSQ
     Using radial grid of 1199 points,  6 beta functions with: 
                l(1) =   0
                l(2) =   0
                l(3) =   1
                l(4) =   1
                l(5) =   2
                l(6) =   2
     Q(r) pseudized with 0 coefficients 


     atomic species   valence    mass     pseudopotential
        Cu            11.00    63.54600     Cu( 1.00)

     48 Sym. Ops., with inversion, found



   Cartesian axes

     site n.     atom                  positions (alat units)
         1           Cu  tau(   1) = (   0.0000000   0.0000000   0.0000000  )
         2           Cu  tau(   2) = (   0.5000000   0.5000000   0.0000000  )
         3           Cu  tau(   3) = (   0.5000000   0.0000000   0.5000000  )
         4           Cu  tau(   4) = (   0.0000000   0.5000000   0.5000000  )

     number of k points=    84 (tetrahedron method)
                       cart. coord. in units 2pi/alat
        k(    1) = (   0.0000000   0.0000000   0.0000000), wk =   0.0011574
        k(    2) = (   0.0000000   0.0000000   0.0833333), wk =   0.0069444
        k(    3) = (   0.0000000   0.0000000   0.1666667), wk =   0.0069444
        k(    4) = (   0.0000000   0.0000000   0.2500000), wk =   0.0069444
        k(    5) = (   0.0000000   0.0000000   0.3333333), wk =   0.0069444
        k(    6) = (   0.0000000   0.0000000   0.4166667), wk =   0.0069444
        k(    7) = (   0.0000000   0.0000000  -0.5000000), wk =   0.0034722
        k(    8) = (   0.0000000   0.0833333   0.0833333), wk =   0.0138889
        k(    9) = (   0.0000000   0.0833333   0.1666667), wk =   0.0277778
        k(   10) = (   0.0000000   0.0833333   0.2500000), wk =   0.0277778
        k(   11) = (   0.0000000   0.0833333   0.3333333), wk =   0.0277778
        k(   12) = (   0.0000000   0.0833333   0.4166667), wk =   0.0277778
        k(   13) = (   0.0000000   0.0833333  -0.5000000), wk =   0.0138889
        k(   14) = (   0.0000000   0.1666667   0.1666667), wk =   0.0138889
        k(   15) = (   0.0000000   0.1666667   0.2500000), wk =   0.0277778
        k(   16) = (   0.0000000   0.1666667   0.3333333), wk =   0.0277778
        k(   17) = (   0.0000000   0.1666667   0.4166667), wk =   0.0277778
        k(   18) = (   0.0000000   0.1666667  -0.5000000), wk =   0.0138889
        k(   19) = (   0.0000000   0.2500000   0.2500000), wk =   0.0138889
        k(   20) = (   0.0000000   0.2500000   0.3333333), wk =   0.0277778
        k(   21) = (   0.0000000   0.2500000   0.4166667), wk =   0.0277778
        k(   22) = (   0.0000000   0.2500000  -0.5000000), wk =   0.0138889
        k(   23) = (   0.0000000   0.3333333   0.3333333), wk =   0.0138889
        k(   24) = (   0.0000000   0.3333333   0.4166667), wk =   0.0277778
        k(   25) = (   0.0000000   0.3333333  -0.5000000), wk =   0.0138889
        k(   26) = (   0.0000000   0.4166667   0.4166667), wk =   0.0138889
        k(   27) = (   0.0000000   0.4166667  -0.5000000), wk =   0.0138889
        k(   28) = (   0.0000000  -0.5000000  -0.5000000), wk =   0.0034722
        k(   29) = (   0.0833333   0.0833333   0.0833333), wk =   0.0092593
        k(   30) = (   0.0833333   0.0833333   0.1666667), wk =   0.0277778
        k(   31) = (   0.0833333   0.0833333   0.2500000), wk =   0.0277778
        k(   32) = (   0.0833333   0.0833333   0.3333333), wk =   0.0277778
        k(   33) = (   0.0833333   0.0833333   0.4166667), wk =   0.0277778
        k(   34) = (   0.0833333   0.0833333  -0.5000000), wk =   0.0138889
        k(   35) = (   0.0833333   0.1666667   0.1666667), wk =   0.0277778
        k(   36) = (   0.0833333   0.1666667   0.2500000), wk =   0.0555556
        k(   37) = (   0.0833333   0.1666667   0.3333333), wk =   0.0555556
        k(   38) = (   0.0833333   0.1666667   0.4166667), wk =   0.0555556
        k(   39) = (   0.0833333   0.1666667  -0.5000000), wk =   0.0277778
        k(   40) = (   0.0833333   0.2500000   0.2500000), wk =   0.0277778
        k(   41) = (   0.0833333   0.2500000   0.3333333), wk =   0.0555556
        k(   42) = (   0.0833333   0.2500000   0.4166667), wk =   0.0555556
        k(   43) = (   0.0833333   0.2500000  -0.5000000), wk =   0.0277778
        k(   44) = (   0.0833333   0.3333333   0.3333333), wk =   0.0277778
        k(   45) = (   0.0833333   0.3333333   0.4166667), wk =   0.0555556
        k(   46) = (   0.0833333   0.3333333  -0.5000000), wk =   0.0277778
        k(   47) = (   0.0833333   0.4166667   0.4166667), wk =   0.0277778
        k(   48) = (   0.0833333   0.4166667  -0.5000000), wk =   0.0277778
        k(   49) = (   0.0833333  -0.5000000  -0.5000000), wk =   0.0069444
        k(   50) = (   0.1666667   0.1666667   0.1666667), wk =   0.0092593
        k(   51) = (   0.1666667   0.1666667   0.2500000), wk =   0.0277778
        k(   52) = (   0.1666667   0.1666667   0.3333333), wk =   0.0277778
        k(   53) = (   0.1666667   0.1666667   0.4166667), wk =   0.0277778
        k(   54) = (   0.1666667   0.1666667  -0.5000000), wk =   0.0138889
        k(   55) = (   0.1666667   0.2500000   0.2500000), wk =   0.0277778
        k(   56) = (   0.1666667   0.2500000   0.3333333), wk =   0.0555556
        k(   57) = (   0.1666667   0.2500000   0.4166667), wk =   0.0555556
        k(   58) = (   0.1666667   0.2500000  -0.5000000), wk =   0.0277778
        k(   59) = (   0.1666667   0.3333333   0.3333333), wk =   0.0277778
        k(   60) = (   0.1666667   0.3333333   0.4166667), wk =   0.0555556
        k(   61) = (   0.1666667   0.3333333  -0.5000000), wk =   0.0277778
        k(   62) = (   0.1666667   0.4166667   0.4166667), wk =   0.0277778
        k(   63) = (   0.1666667   0.4166667  -0.5000000), wk =   0.0277778
        k(   64) = (   0.1666667  -0.5000000  -0.5000000), wk =   0.0069444
        k(   65) = (   0.2500000   0.2500000   0.2500000), wk =   0.0092593
        k(   66) = (   0.2500000   0.2500000   0.3333333), wk =   0.0277778
        k(   67) = (   0.2500000   0.2500000   0.4166667), wk =   0.0277778
        k(   68) = (   0.2500000   0.2500000  -0.5000000), wk =   0.0138889
        k(   69) = (   0.2500000   0.3333333   0.3333333), wk =   0.0277778
        k(   70) = (   0.2500000   0.3333333   0.4166667), wk =   0.0555556
        k(   71) = (   0.2500000   0.3333333  -0.5000000), wk =   0.0277778
        k(   72) = (   0.2500000   0.4166667   0.4166667), wk =   0.0277778
        k(   73) = (   0.2500000   0.4166667  -0.5000000), wk =   0.0277778
        k(   74) = (   0.2500000  -0.5000000  -0.5000000), wk =   0.0069444
        k(   75) = (   0.3333333   0.3333333   0.3333333), wk =   0.0092593
        k(   76) = (   0.3333333   0.3333333   0.4166667), wk =   0.0277778
        k(   77) = (   0.3333333   0.3333333  -0.5000000), wk =   0.0138889
        k(   78) = (   0.3333333   0.4166667   0.4166667), wk =   0.0277778
        k(   79) = (   0.3333333   0.4166667  -0.5000000), wk =   0.0277778
        k(   80) = (   0.3333333  -0.5000000  -0.5000000), wk =   0.0069444
        k(   81) = (   0.4166667   0.4166667   0.4166667), wk =   0.0092593
        k(   82) = (   0.4166667   0.4166667  -0.5000000), wk =   0.0138889
        k(   83) = (   0.4166667  -0.5000000  -0.5000000), wk =   0.0069444
        k(   84) = (  -0.5000000  -0.5000000  -0.5000000), wk =   0.0011574

     Dense  grid:   123449 G-vectors     FFT dimensions: (  64,  64,  64)

     Smooth grid:    31343 G-vectors     FFT dimensions: (  40,  40,  40)

     Estimated max dynamical RAM per process >     400.60 MB

     The potential is recalculated from file :
     /Users/vittoriodibona/Desktop/Tutorial_LAMMPS/Esame/CopperQE/3_electronic/tmp/Cu_fcc.save/charge-density

     Starting wfcs are   36 randomized atomic wfcs
     Checking if some PAW data can be deallocated... 

     Band Structure Calculation
     CG style diagonalization
     c_bands:  1 eigenvalues not converged

     ethr =  2.27E-11,  avg # of iterations = 34.6

     total cpu time spent up to now is      264.2 secs

     End of band structure calculation

          k = 0.0000 0.0000 0.0000 (  3887 PWs)   bands (ev):

     3.1479   7.6461   7.6461   7.6461   8.1060   8.1060   8.1060   9.4892
     9.4892   9.4892  10.3050  10.3050  10.8505  10.8505  10.8505  11.0103
    11.0103  11.0103  11.0104  11.0104  11.0104  13.9281  13.9281  13.9281
    19.4770  19.4770

          k = 0.0000 0.0000 0.0833 (  3883 PWs)   bands (ev):

     3.2316   7.6439   7.6853   7.6853   8.1283   8.1293   8.1293   9.4643
     9.5090   9.5090  10.2825  10.3141  10.8213  10.8214  10.8410  10.8606
    10.8606  10.9759  10.9759  11.0104  11.0104  13.4133  14.1527  14.1527
    19.5078  19.5078

          k = 0.0000 0.0000 0.1667 (  3887 PWs)   bands (ev):

     3.4809   7.6204   7.7976   7.7976   8.1940   8.1999   8.1999   9.3917
     9.5681   9.5681  10.2175  10.3408  10.5085  10.5085  10.7366  10.7366
    10.8132  10.8773  10.8773  11.0105  11.0105  12.3335  14.7289  14.7289
    19.6034  19.6034

          k = 0.0000 0.0000 0.2500 (  3880 PWs)   bands (ev):

     3.8902   7.5149   7.9653   7.9653   8.2992   8.3188   8.3188   9.2770
     9.6649   9.6649  10.0915  10.0915  10.1183  10.3834  10.6062  10.6062
    10.7273  10.7273  10.7691  11.0107  11.0108  11.2313  15.5178  15.5178
    19.7722  19.7722

          k = 0.0000 0.0000 0.3333 (  3896 PWs)   bands (ev):

     4.4476   7.2141   8.1558   8.1558   8.4377   8.4876   8.4876   9.1290
     9.6812   9.6812   9.7967   9.7967  10.0006  10.3964  10.4391  10.4527
    10.4527  10.5435  10.5435  10.7119  11.0109  11.0109  16.4453  16.4453
    20.0273  20.0273

          k = 0.0000 0.0000 0.4167 (  3904 PWs)   bands (ev):

     5.1308   6.6407   8.3164   8.3164   8.6010   8.7082   8.7082   8.9588
     9.3073   9.3073   9.8927   9.9588   9.9588   9.9624  10.3189  10.3190
    10.3438  10.3438  10.5043  10.6455  11.0111  11.0111  17.4783  17.4783
    19.8009  19.8009

          k = 0.0000 0.0000-0.5000 (  3948 PWs)   bands (ev):

     5.8936   5.8936   8.3816   8.3816   8.7786   8.7786   8.9816   8.9816
     8.9816   8.9816   9.8466   9.8466  10.1445  10.1445  10.1445  10.1445
    10.2635  10.2636  10.5747  10.5747  11.0111  11.0111  18.6003  18.6003
    18.6003  18.6003

          k = 0.0000 0.0833 0.0833 (  3881 PWs)   bands (ev):

     3.3150   7.6841   7.6841   7.7236   8.1512   8.1512   8.1519   9.4503
     9.5185   9.5268  10.2764  10.3089  10.7504  10.7770  10.7770  10.7935
    10.8529  10.8529  10.9759  10.9759  10.9883  13.6351  13.6351  14.3600
    19.5390  20.2005

          k = 0.0000 0.0833 0.1667 (  3881 PWs)   bands (ev):

     3.5632   7.6636   7.7993   7.8333   8.2156   8.2198   8.2204   9.3848
     9.5719   9.5794  10.2202  10.3333  10.4408  10.4414  10.6500  10.7122
    10.7447  10.8216  10.8770  10.9757  10.9764  12.5746  14.1856  14.9055
    19.6344  20.3297

          k = 0.0000 0.0833 0.2500 (  3895 PWs)   bands (ev):

     3.9706   7.5632   7.9718   7.9975   8.3188   8.3333   8.3370   9.2743
     9.6626   9.6670  10.0265  10.0532  10.1294  10.3810  10.4255  10.5869
    10.6138  10.7269  10.7633  10.9736  10.9755  11.5545  14.9147  15.6692
    19.7958  20.5563

          k = 0.0000 0.0833 0.3333 (  3911 PWs)   bands (ev):

     4.5253   7.2689   8.1691   8.1863   8.4545   8.4915   8.5025   9.1302
     9.6236   9.6621   9.7578   9.7978  10.0406  10.0911  10.4393  10.4446
    10.4604  10.5429  10.6529  10.9194  10.9732  10.9751  15.7509  16.5789
    19.7556  20.1941

          k = 0.0000 0.0833 0.4167 (  3903 PWs)   bands (ev):

     5.2044   6.7024   8.3384   8.3485   8.6143   8.6939   8.7182   8.9641
     9.2603   9.3014   9.7850   9.8251   9.9593  10.0577  10.3120  10.3245
    10.3433  10.4307  10.5201  10.7052  10.9735  10.9747  16.6651  17.5996
    18.6984  19.9081

          k = 0.0000 0.0833-0.5000 (  3906 PWs)   bands (ev):

     5.9619   5.9619   8.4116   8.4116   8.7880   8.7881   8.9485   8.9485
     8.9849   8.9849   9.7549   9.7549  10.1444  10.1444  10.2139  10.2139
    10.2636  10.2636  10.6048  10.6048  10.9741  10.9741  17.6479  17.6479
    18.7132  18.7132

          k = 0.0000 0.1667 0.1667 (  3888 PWs)   bands (ev):

     3.8082   7.7877   7.7877   7.9352   8.2796   8.2809   8.2809   9.3451
     9.6039   9.6123  10.1999  10.2366  10.2672  10.2672  10.3416  10.6407
    10.7383  10.7383  10.8763  10.8763  10.9230  13.1100  13.1100  15.3894
    19.7193  20.9718

          k = 0.0000 0.1667 0.2500 (  3897 PWs)   bands (ev):

     4.2099   7.7025   7.9751   8.0887   8.3776   8.3780   8.3906   9.2564
     9.6601   9.6840   9.8575   9.9349  10.0174  10.1360  10.3979  10.5293
    10.6139  10.6908  10.7256  10.8752  10.8921  12.0851  13.7702  16.0964
    19.4564  20.0568

          k = 0.0000 0.1667 0.3333 (  3900 PWs)   bands (ev):

     4.7557   7.4275   8.1936   8.2708   8.5045   8.5063   8.5458   9.1291
     9.4756   9.6026   9.6959   9.7549   9.8068  10.0820  10.3976  10.4647
    10.4865  10.5416  10.5898  10.8738  10.8785  11.3582  14.5078  16.9628
    18.2941  20.2637

          k = 0.0000 0.1667 0.4167 (  3911 PWs)   bands (ev):

     5.4223   6.8822   8.3908   8.4400   8.6536   8.6537   8.7470   8.9777
     9.1390   9.2819   9.6090   9.6694   9.9636  10.1176  10.2869  10.3268
    10.3428  10.4298  10.5986  10.8726  10.8733  10.9545  15.3165  17.1946
    17.9520  20.2229

          k = 0.0000 0.1667-0.5000 (  3908 PWs)   bands (ev):

     6.1626   6.1626   8.4943   8.4943   8.8151   8.8152   8.8584   8.8584
     8.9936   8.9936   9.6083   9.6083  10.1457  10.1457  10.2510  10.2510
    10.2550  10.2550  10.7407  10.7407  10.8720  10.8720  16.2065  16.2065
    19.0432  19.0432

          k = 0.0000 0.2500 0.2500 (  3894 PWs)   bands (ev):

     4.6012   7.9147   7.9147   8.2233   8.4529   8.4760   8.4760   9.2045
     9.6379   9.6379   9.6605   9.7380   9.7411  10.1008  10.4374  10.4735
    10.5753  10.5753  10.7240  10.7240  10.8164  12.6776  12.6776  16.7431
    18.1328  20.1933

          k = 0.0000 0.2500 0.3333 (  3895 PWs)   bands (ev):

     5.1310   7.6705   8.1671   8.3830   8.5453   8.5876   8.6142   9.1131
     9.3021   9.4594   9.4994   9.6457   9.8388  10.0605  10.3266  10.4339
    10.4827  10.5408  10.6005  10.7227  10.7672  11.8436  13.3274  16.8971
    17.5585  20.4966

          k = 0.0000 0.2500 0.4167 (  3905 PWs)   bands (ev):

     5.7740   7.1619   8.4084   8.5617   8.6084   8.7175   8.7913   8.9923
     9.0128   9.2451   9.4145   9.5807   9.9808  10.0857  10.2354  10.2986
    10.3420  10.3449  10.7233  10.7405  10.7657  11.3069  14.0495  15.8107
    18.5076  20.7277

          k = 0.0000 0.2500-0.5000 (  3924 PWs)   bands (ev):

     6.4817   6.4817   8.5714   8.5714   8.7681   8.7681   8.8562   8.8562
     9.0041   9.0041   9.4812   9.4812  10.1535  10.1535  10.1922  10.1922
    10.2193  10.2193  10.7280  10.7280  10.9826  10.9826  14.8683  14.8683
    19.5688  19.5688

          k = 0.0000 0.3333 0.3333 (  3922 PWs)   bands (ev):

     5.6353   7.9617   7.9617   8.4677   8.6347   8.7023   8.7023   9.0700
     9.2111   9.2111   9.3559   9.5968   9.9092  10.0120  10.2351  10.3503
    10.3503  10.5426  10.5426  10.6727  10.7742  12.3826  12.3826  15.6643
    18.3261  20.8458

          k = 0.0000 0.3333 0.4167 (  3897 PWs)   bands (ev):

     6.2395   7.5069   8.2423   8.4965   8.7514   8.8023   8.8454   8.9978
     9.0139   9.1865   9.2595   9.5123  10.0113  10.0235  10.1564  10.2223
    10.2225  10.3541  10.5505  10.6078  10.9963  11.7204  12.9998  14.6105
    19.2351  21.3227

          k = 0.0000 0.3333-0.5000 (  3902 PWs)   bands (ev):

     6.8922   6.8922   8.4352   8.4352   8.8672   8.8672   8.9045   8.9046
     9.0106   9.0106   9.3843   9.3843  10.0916  10.0916  10.1451  10.1451
    10.1759  10.1759  10.5698  10.5698  11.2897  11.2897  13.7304  13.7304
    20.2643  20.2643

          k = 0.0000 0.4167 0.4167 (  3886 PWs)   bands (ev):

     6.7833   7.8618   7.8619   8.3671   8.9018   8.9018   8.9113   8.9849
     9.1052   9.1424   9.1424   9.4309   9.9651  10.0753  10.1032  10.1081
    10.1081  10.3772  10.3772  10.4988  11.2854  12.2137  12.2137  13.6176
    20.1078  21.8531

          k = 0.0000 0.4167-0.5000 (  3910 PWs)   bands (ev):

     7.3491   7.3491   8.1610   8.1610   8.9512   8.9512   9.0067   9.0067
     9.0392   9.0392   9.3015   9.3015  10.0025  10.0025  10.0483  10.0483
    10.2233  10.2233  10.4227  10.4227  11.6675  11.6675  12.8294  12.8294
    21.1066  21.1066

          k = 0.0000-0.5000-0.5000 (  3900 PWs)   bands (ev):

     7.7910   7.7910   7.7910   7.7910   8.9871   8.9871   8.9871   8.9871
     9.1935   9.1935   9.1935   9.1935   9.9830   9.9830   9.9830   9.9830
    10.3047  10.3047  10.3047  10.3047  12.1591  12.1591  12.1591  12.1591
    22.0781  22.0781

          k = 0.0833 0.0833 0.0833 (  3869 PWs)   bands (ev):

     3.3979   7.7233   7.7233   7.7233   8.1734   8.1734   8.1734   9.4373
     9.5351   9.5351  10.2880  10.2880  10.7013  10.7013  10.7013  10.7686
    10.7686  10.7686  10.9716  10.9716  10.9716  13.8354  13.8354  13.8354
    20.2428  20.2428

          k = 0.0833 0.0833 0.1667 (  3886 PWs)   bands (ev):

     3.6451   7.7053   7.8353   7.8353   8.2367   8.2401   8.2401   9.3779
     9.5804   9.5846  10.2288  10.3220  10.3808  10.3808  10.5515  10.6936
    10.6946  10.6946  10.9268  10.9611  10.9611  12.7747  14.3496  14.3496
    20.3724  20.3724

          k = 0.0833 0.0833 0.2500 (  3897 PWs)   bands (ev):

     4.0504   7.6093   8.0036   8.0036   8.3381   8.3514   8.3514   9.2722
     9.6609   9.6662   9.9929   9.9929  10.1456  10.2943  10.3759  10.5725
    10.5794  10.5794  10.8635  10.9523  10.9524  11.7568  15.0498  15.0498
    20.5845  20.5845

          k = 0.0833 0.0833 0.3333 (  3910 PWs)   bands (ev):

     4.6021   7.3210   8.1983   8.1983   8.4715   8.5052   8.5052   9.1325
     9.6100   9.6100   9.7415   9.7781   9.9692  10.0826  10.4181  10.4375
    10.4375  10.4460  10.7878  10.9473  10.9473  11.0444  15.8638  15.8638
    19.9530  19.9530

          k = 0.0833 0.0833 0.4167 (  3902 PWs)   bands (ev):

     5.2769   6.7617   8.3698   8.3699   8.6284   8.6963   8.6963   8.9707
     9.2654   9.2654   9.7429   9.7472   9.9167  10.1420  10.2474  10.3105
    10.3105  10.5275  10.6163  10.7036  10.9449  10.9450  16.7540  16.7540
    18.8357  18.8357

          k = 0.0833 0.0833-0.5000 (  3908 PWs)   bands (ev):

     6.0284   6.0284   8.4424   8.4424   8.7986   8.7986   8.8730   8.8730
     9.0329   9.0329   9.7018   9.7018  10.0761  10.0761  10.2572  10.2573
    10.3329  10.3329  10.6152  10.6152  10.9442  10.9442  17.5265  17.5265
    17.9877  17.9877

          k = 0.0833 0.1667 0.1667 (  3893 PWs)   bands (ev):

     3.8887   7.8247   7.8247   7.9382   8.2991   8.3000   8.3000   9.3406
     9.6089   9.6135  10.1830  10.2133  10.2133  10.2208  10.3246  10.5981
    10.6277  10.6277  10.9210  10.9210  10.9304  13.2574  13.2574  14.7927
    20.4810  21.0860

          k = 0.0833 0.1667 0.2500 (  3907 PWs)   bands (ev):

     4.2878   7.7412   8.0047   8.0926   8.3959   8.3963   8.4054   9.2569
     9.6585   9.6757   9.8330   9.8860   9.9661  10.1658  10.3858  10.4921
    10.5070  10.5377  10.8607  10.8969  10.8999  12.2078  13.8834  15.4254
    19.6587  20.7954

          k = 0.0833 0.1667 0.3333 (  3912 PWs)   bands (ev):

     4.8299   7.4703   8.2157   8.2765   8.5190   8.5229   8.5483   9.1350
     9.4764   9.5662   9.6901   9.7137   9.7720  10.1376  10.3525  10.3722
    10.4149  10.4776  10.7721  10.8776  10.8781  11.4255  14.5976  16.1727
    18.4576  20.2635

          k = 0.0833 0.1667 0.4167 (  3902 PWs)   bands (ev):

     5.4908   6.9332   8.4146   8.4570   8.6404   8.6710   8.7052   8.9885
     9.1790   9.2740   9.5819   9.6564   9.8903  10.1878  10.2202  10.2667
    10.2935  10.5884  10.6279  10.8666  10.8668  10.9523  15.3850  16.8289
    17.5668  19.1387

          k = 0.0833 0.1667-0.5000 (  3908 PWs)   bands (ev):

     6.2232   6.2232   8.5270   8.5270   8.7547   8.7547   8.8298   8.8299
     9.0757   9.0757   9.5899   9.5899  10.0302  10.0302  10.2314  10.2314
    10.4101  10.4101  10.7241  10.7241  10.8633  10.8633  16.2353  16.2353
    18.1300  18.1300

          k = 0.0833 0.2500 0.2500 (  3906 PWs)   bands (ev):

     4.6758   7.9399   7.9399   8.2213   8.4716   8.4936   8.4936   9.2105
     9.6240   9.6240   9.6583   9.7070   9.7143  10.1467  10.3852  10.4403
    10.4403  10.4590  10.8192  10.8192  10.8424  12.7639  12.7640  15.9693
    18.3063  21.0517

          k = 0.0833 0.2500 0.3333 (  3888 PWs)   bands (ev):

     5.2003   7.6952   8.1721   8.3683   8.5655   8.6099   8.6252   9.1259
     9.3213   9.4555   9.4871   9.6434   9.7831  10.1368  10.2780  10.2982
    10.3444  10.5853  10.7133  10.7791  10.7940  11.8890  13.3926  16.4405
    17.3128  20.7317

          k = 0.0833 0.2500 0.4167 (  3893 PWs)   bands (ev):

     5.8351   7.1968   8.3929   8.5168   8.6332   8.7426   8.7511   9.0117
     9.1005   9.2723   9.4141   9.5784   9.8753  10.1411  10.1923  10.2146
    10.2382  10.5629  10.7481  10.7556  10.7627  11.3091  14.0987  15.7924
    17.7057  19.6054

          k = 0.0833 0.2500-0.5000 (  3880 PWs)   bands (ev):

     6.5310   6.5310   8.5467   8.5467   8.7139   8.7139   8.8801   8.8801
     9.1050   9.1050   9.4800   9.4800   9.9952   9.9952  10.1731  10.1731
    10.3773  10.3773  10.7502  10.7502  10.9654  10.9654  14.8986  14.8986
    18.5901  18.5901

          k = 0.0833 0.3333 0.3333 (  3895 PWs)   bands (ev):

     5.6965   7.9558   7.9558   8.4211   8.6670   8.7309   8.7309   9.0926
     9.2374   9.2374   9.3764   9.5977   9.8101  10.1281  10.1768  10.2246
    10.2246  10.6559  10.6559  10.7145  10.7563  12.4156  12.4156  15.6277
    17.5641  21.3551

          k = 0.0833 0.3333 0.4167 (  3896 PWs)   bands (ev):

     6.2882   7.5149   8.1952   8.4243   8.7818   8.8430   8.8621   9.0307
     9.0903   9.2493   9.2763   9.5160   9.8597  10.0823  10.0975  10.1378
    10.1910  10.5016  10.6227  10.6538  10.9762  11.7209  13.0247  14.6168
    18.3163  20.2259

          k = 0.0833 0.3333-0.5000 (  3898 PWs)   bands (ev):

     6.9226   6.9226   8.3580   8.3580   8.8705   8.8705   8.9452   8.9452
     9.1206   9.1206   9.3924   9.3924   9.9519   9.9520  10.0807  10.0807
    10.3311  10.3311  10.6219  10.6219  11.2726  11.2726  13.7485  13.7485
    19.2123  19.2123

          k = 0.0833 0.4167 0.4167 (  3899 PWs)   bands (ev):

     6.8127   7.8325   7.8325   8.2875   8.9366   8.9646   8.9646   9.0347
     9.1729   9.1729   9.1974   9.4396   9.8554  10.0104  10.0138  10.0138
    10.2233  10.4732  10.4732  10.5571  11.2642  12.2132  12.2132  13.6235
    19.0817  20.9866

          k = 0.0833 0.4167-0.5000 (  3910 PWs)   bands (ev):

     7.3511   7.3511   8.0961   8.0961   9.0155   9.0155   9.0413   9.0413
     9.1238   9.1238   9.3158   9.3158   9.9064   9.9064   9.9760   9.9761
    10.3272  10.3272  10.4923  10.4923  11.6509  11.6509  12.8312  12.8312
    19.9737  19.9737

          k = 0.0833-0.5000-0.5000 (  3916 PWs)   bands (ev):

     7.7574   7.7574   7.7574   7.7574   9.0717   9.0718   9.0718   9.0718
     9.2145   9.2145   9.2145   9.2146   9.9053   9.9053   9.9053   9.9053
    10.3848  10.3849  10.3849  10.3849  12.1480  12.1480  12.1480  12.1480
    20.8637  20.8637

          k = 0.1667 0.1667 0.1667 (  3881 PWs)   bands (ev):

     4.1280   7.9297   7.9297   7.9297   8.3576   8.3576   8.3576   9.3154
     9.6266   9.6266  10.0288  10.0288  10.0288  10.2798  10.2798  10.4926
    10.4926  10.4926  10.9341  10.9341  10.9341  13.6485  13.6485  13.6485
    21.3337  21.3337

          k = 0.1667 0.1667 0.2500 (  3902 PWs)   bands (ev):

     4.5194   7.8497   8.0847   8.0847   8.4527   8.4527   8.4537   9.2518
     9.6572   9.6631   9.7530   9.7530   9.8048  10.2310  10.3549  10.3674
    10.3944  10.3944  10.9086  10.9086  10.9138  12.5394  14.1969  14.1969
    19.9825  19.9825

          k = 0.1667 0.1667 0.3333 (  3899 PWs)   bands (ev):

     5.0493   7.5896   8.2652   8.2652   8.5699   8.5699   8.5804   9.1498
     9.4738   9.4738   9.5962   9.6690   9.7237  10.2051  10.2363  10.2972
    10.2972  10.4723  10.8644  10.8728  10.8729  11.6598  14.8434  14.8434
    18.7711  18.7711

          k = 0.1667 0.1667 0.4167 (  3883 PWs)   bands (ev):

     5.6921   7.0779   8.4482   8.4482   8.6520   8.6520   8.7254   9.0206
     9.2592   9.2592   9.5075   9.6186   9.8109  10.0577  10.2050  10.2050
    10.3637  10.5840  10.7885  10.8465  10.8465  11.0413  15.5338  15.5338
    17.7446  17.7446

          k = 0.1667 0.1667-0.5000 (  3906 PWs)   bands (ev):

     6.3990   6.3990   8.5860   8.5860   8.6219   8.6219   8.8757   8.8757
     9.1799   9.1799   9.5394   9.5394   9.9237   9.9237  10.1636  10.1636
    10.6275  10.6275  10.6924  10.6924  10.8372  10.8372  15.9831  15.9831
    17.1836  17.1836

          k = 0.1667 0.2500 0.2500 (  3890 PWs)   bands (ev):

     4.8967   8.0044   8.0044   8.1915   8.5366   8.5512   8.5512   9.2246
     9.5789   9.5790   9.6162   9.6528   9.6718  10.2546  10.2611  10.2612
    10.2652  10.4221  10.8859  10.8965  10.8965  13.0103  13.0103  14.6506
    18.6275  20.4552

          k = 0.1667 0.2500 0.3333 (  3892 PWs)   bands (ev):

     5.4041   7.7579   8.1712   8.2976   8.6433   8.6755   8.6816   9.1643
     9.3700   9.4422   9.4584   9.6354   9.7017  10.1150  10.1641  10.1821
    10.2780  10.5468  10.8436  10.8499  10.8501  12.0396  13.5768  15.1531
    17.5046  19.2336

          k = 0.1667 0.2500 0.4167 (  3895 PWs)   bands (ev):

     6.0128   7.2915   8.3154   8.3804   8.7261   8.7664   8.8232   9.0726
     9.2532   9.3354   9.4116   9.5695   9.7615   9.9747  10.0880  10.1060
    10.3977  10.6993  10.7576  10.8054  10.8080  11.3417  14.2211  15.3878
    16.9200  18.1718

          k = 0.1667 0.2500-0.5000 (  3888 PWs)   bands (ev):

     6.6711   6.6711   8.3972   8.3973   8.7658   8.7658   8.9568   8.9568
     9.2643   9.2643   9.4746   9.4746   9.8539   9.8539  10.0628  10.0628
    10.5966  10.5966  10.7910  10.7910  10.9188  10.9188  14.9082  14.9082
    17.3138  17.3138

          k = 0.1667 0.3333 0.3333 (  3906 PWs)   bands (ev):

     5.8748   7.9345   7.9345   8.2912   8.7620   8.8199   8.8199   9.1643
     9.3096   9.3096   9.4277   9.5979   9.6977  10.0468  10.0468  10.0501
    10.2905  10.7063  10.7927  10.7927  10.7932  12.5178  12.5178  15.1750
    16.8291  19.8462

          k = 0.1667 0.3333 0.4167 (  3903 PWs)   bands (ev):

     6.4270   7.5334   8.0829   8.2551   8.8733   8.9352   8.9657   9.1371
     9.2611   9.3259   9.3872   9.5237   9.7273   9.9136   9.9711   9.9847
    10.3707  10.6849  10.7383  10.7418  10.9174  11.7309  13.0909  14.5428
    17.1120  18.7611

          k = 0.1667 0.3333-0.5000 (  3884 PWs)   bands (ev):

     7.0054   7.0054   8.1887   8.1887   8.9405   8.9405   9.0742   9.0742
     9.3233   9.3234   9.4138   9.4138   9.8021   9.8021   9.9477   9.9477
    10.5264  10.5264  10.7180  10.7181  11.2234  11.2234  13.7720  13.7720
    17.8360  17.8360

          k = 0.1667 0.4167 0.4167 (  3898 PWs)   bands (ev):

     6.8930   7.7611   7.7611   8.1135   9.0175   9.1119   9.1119   9.1943
     9.2823   9.2823   9.3999   9.4614   9.7172   9.8627   9.8627   9.8791
    10.3918  10.6274  10.6274  10.6687  11.2000  12.2110  12.2110  13.6082
    17.7284  19.4942

          k = 0.1667 0.4167-0.5000 (  3898 PWs)   bands (ev):

     7.3552   7.3552   7.9530   7.9530   9.1165   9.1165   9.2097   9.2097
     9.3489   9.3489   9.3547   9.3547   9.7643   9.7643   9.8399   9.8399
    10.4922  10.4922  10.6201  10.6201  11.6000  11.6000  12.8245  12.8245
    18.5350  18.5350

          k = 0.1667-0.5000-0.5000 (  3900 PWs)   bands (ev):

     7.6773   7.6773   7.6773   7.6773   9.2548   9.2548   9.2548   9.2548
     9.3234   9.3234   9.3234   9.3234   9.7691   9.7691   9.7691   9.7691
    10.5279  10.5279  10.5279  10.5279  12.1099  12.1099  12.1099  12.1099
    19.3795  19.3795

          k = 0.2500 0.2500 0.2500 (  3893 PWs)   bands (ev):

     5.2544   8.0807   8.0807   8.0807   8.6537   8.6537   8.6537   9.2350
     9.5041   9.5041   9.5041   9.6440   9.6440  10.1221  10.1221  10.1221
    10.3876  10.3876  10.9087  10.9087  10.9087  13.3835  13.3835  13.3835
    19.0930  19.0930

          k = 0.2500 0.2500 0.3333 (  3899 PWs)   bands (ev):

     5.7298   7.8326   8.1447   8.1447   8.7799   8.7799   8.8067   9.2247
     9.4218   9.4312   9.4312   9.6177   9.6452   9.9797  10.0271  10.0272
    10.4110  10.5255  10.8765  10.8765  10.8970  12.3108  13.8402  13.8402
    17.9255  17.9255

          k = 0.2500 0.2500 0.4167 (  3895 PWs)   bands (ev):

     6.2896   7.4198   8.1865   8.1865   8.8720   8.8720   8.9660   9.1814
     9.4074   9.4078   9.4078   9.5515   9.6807   9.8527   9.9603   9.9604
    10.5687  10.6548  10.8334  10.8334  10.8481  11.4865  14.3038  14.3038
    17.0311  17.0311

          k = 0.2500 0.2500-0.5000 (  3872 PWs)   bands (ev):

     6.8789   6.8789   8.2013   8.2013   8.8991   8.8991   9.0969   9.0969
     9.4164   9.4164   9.4628   9.4628   9.7509   9.7509   9.9311   9.9312
    10.7653  10.7653  10.8139  10.8139  10.9153  10.9153  14.5442  14.5442
    16.6460  16.6460

          k = 0.2500 0.3333 0.3333 (  3900 PWs)   bands (ev):

     6.1531   7.8982   7.8982   8.0989   8.9088   8.9554   8.9554   9.2927
     9.4187   9.4187   9.4930   9.5913   9.6149   9.8918   9.8918   9.9085
    10.4525  10.6394  10.8579  10.8733  10.8734  12.6923  12.6923  14.0818
    16.9354  18.5083

          k = 0.2500 0.3333 0.4167 (  3895 PWs)   bands (ev):

     6.6345   7.5531   7.9515   8.0482   9.0112   9.0503   9.1426   9.3347
     9.4232   9.4749   9.5272   9.5460   9.6277   9.7735   9.8331   9.8351
    10.5485  10.8180  10.8231  10.8241  10.8261  11.7808  13.1638  14.0682
    16.5118  17.5141

          k = 0.2500 0.3333-0.5000 (  3894 PWs)   bands (ev):

     7.1197   7.1197   7.9993   7.9993   9.0605   9.0605   9.2944   9.2944
     9.4509   9.4509   9.5489   9.5489   9.6829   9.6829   9.8068   9.8068
    10.7119  10.7119  10.7981  10.7982  11.1571  11.1571  13.6787  13.6787
    16.7879  16.7879

          k = 0.2500 0.4167 0.4167 (  3902 PWs)   bands (ev):

     7.0052   7.6774   7.6774   7.9173   9.1357   9.2333   9.2334   9.4829
     9.4904   9.5268   9.5268   9.6041   9.6451   9.7284   9.7284   9.7428
    10.5519  10.7628  10.7628  10.7723  11.0912  12.2044  12.2044  13.4449
    16.7131  18.1854

          k = 0.2500 0.4167-0.5000 (  3892 PWs)   bands (ev):

     7.3608   7.3608   7.7957   7.7957   9.2145   9.2145   9.3878   9.3878
     9.5462   9.5463   9.6443   9.6443   9.6471   9.6471   9.7115   9.7115
    10.6506  10.6506  10.7388  10.7388  11.5125  11.5125  12.7660  12.7660
    17.3278  17.3278

          k = 0.2500-0.5000-0.5000 (  3900 PWs)   bands (ev):

     7.5856   7.5856   7.5856   7.5856   9.3299   9.3299   9.3299   9.3299
     9.6412   9.6412   9.6412   9.6412   9.6759   9.6759   9.6759   9.6759
    10.6651  10.6651  10.6651  10.6651  12.0295  12.0295  12.0295  12.0295
    18.0830  18.0830

          k = 0.3333 0.3333 0.3333 (  3884 PWs)   bands (ev):

     6.5015   7.8585   7.8585   7.8585   9.0875   9.0875   9.0875   9.4720
     9.5614   9.5614   9.5614   9.5689   9.5689   9.7774   9.7774   9.7774
    10.6018  10.6018  10.8880  10.8880  10.8880  12.9244  12.9244  12.9244
    17.4066  17.4066

          k = 0.3333 0.3333 0.4167 (  3901 PWs)   bands (ev):

     6.8791   7.5740   7.8288   7.8288   9.1690   9.1690   9.2695   9.5177
     9.5630   9.6263   9.6322   9.6709   9.6918   9.6918   9.7263   9.7263
    10.7203  10.7278  10.8586  10.8587  10.8761  11.9222  13.1564  13.1564
    16.6336  16.6336

          k = 0.3333 0.3333-0.5000 (  3892 PWs)   bands (ev):

     7.2451   7.2451   7.8179   7.8179   9.1942   9.1942   9.4203   9.4203
     9.5977   9.5977   9.6707   9.6707   9.6832   9.6832   9.7804   9.7804
    10.8215  10.8215  10.8371  10.8371  11.1608  11.1608  13.2640  13.2640
    16.3418  16.3418

          k = 0.3333 0.4167 0.4167 (  3902 PWs)   bands (ev):

     7.1308   7.6043   7.6043   7.7279   9.2618   9.3156   9.3156   9.4983
     9.5261   9.6083   9.6083   9.6257   9.8738   9.8738   9.9119   9.9348
    10.6895  10.8442  10.8509  10.8509  10.9389  12.1907  12.1907  12.9495
    16.2890  17.1380

          k = 0.3333 0.4167-0.5000 (  3892 PWs)   bands (ev):

     7.3731   7.3731   7.6535   7.6535   9.3122   9.3122   9.4281   9.4281
     9.5464   9.5464   9.5913   9.5913   9.9945   9.9945   9.9960   9.9960
    10.7838  10.7838  10.8236  10.8236  11.3972  11.3972  12.5693  12.5693
    16.5048  16.5048

          k = 0.3333-0.5000-0.5000 (  3908 PWs)   bands (ev):

     7.5068   7.5068   7.5068   7.5068   9.3949   9.3949   9.3949   9.3950
     9.5411   9.5411   9.5411   9.5411  10.1188  10.1188  10.1188  10.1188
    10.7745  10.7745  10.7745  10.7745  11.8810  11.8810  11.8810  11.8810
    17.0561  17.0561

          k = 0.4167 0.4167 0.4167 (  3894 PWs)   bands (ev):

     7.2620   7.5555   7.5555   7.5555   9.3703   9.3703   9.3703   9.4884
     9.4884   9.5402   9.5402   9.5402  10.1872  10.1872  10.1872  10.4897
    10.7937  10.7937  10.8737  10.8737  10.8737  12.1724  12.1724  12.1724
    16.4412  16.4412

          k = 0.4167 0.4167-0.5000 (  3912 PWs)   bands (ev):

     7.4015   7.4015   7.5384   7.5384   9.3911   9.3911   9.4470   9.4470
     9.4933   9.4933   9.5146   9.5146  10.3338  10.3338  10.4479  10.4479
    10.8567  10.8567  10.8601  10.8601  11.3458  11.3458  12.1627  12.1627
    16.1931  16.1931

          k = 0.4167-0.5000-0.5000 (  3900 PWs)   bands (ev):

     7.4548   7.4548   7.4548   7.4548   9.4402   9.4402   9.4402   9.4402
     9.4779   9.4779   9.4779   9.4779  10.5852  10.5852  10.5852  10.5852
    10.8446  10.8446  10.8446  10.8446  11.6453  11.6453  11.6453  11.6453
    16.3844  16.3844

          k =-0.5000-0.5000-0.5000 (  3912 PWs)   bands (ev):

     7.4367   7.4367   7.4367   7.4367   9.4563   9.4563   9.4563   9.4563
     9.4563   9.4563   9.4563   9.4563  10.8686  10.8686  10.8686  10.8687
    10.8687  10.8687  10.8687  10.8687  11.4498  11.4499  11.4499  11.4499
    16.1491  16.1491

     the Fermi energy is    12.4931 ev
     (compare with:    12.3930 eV, computed in scf)

     Writing all to output data dir /Users/vittoriodibona/Desktop/Tutorial_LAMMPS/Esame/CopperQE/3_electronic/tmp/Cu_fcc.save/

     init_run     :      2.10s CPU      1.30s WALL (       1 calls)
     electrons    :   1892.09s CPU    262.60s WALL (       1 calls)

     Called by init_run:
     wfcinit      :      0.00s CPU      0.00s WALL (       1 calls)
     potinit      :      0.51s CPU      0.54s WALL (       1 calls)
     hinit0       :      1.11s CPU      0.51s WALL (       1 calls)

     Called by electrons:
     c_bands      :   1889.90s CPU    261.26s WALL (       1 calls)
     v_of_rho     :      0.09s CPU      0.10s WALL (       1 calls)
     newd         :      0.25s CPU      0.15s WALL (       1 calls)
     PAW_pot      :      0.40s CPU      0.41s WALL (       1 calls)

     Called by c_bands:
     init_us_2    :      1.02s CPU      0.13s WALL (      84 calls)
     init_us_2:cp :      1.02s CPU      0.13s WALL (      84 calls)
     ccgdiagg     :   1802.46s CPU    245.44s WALL (     243 calls)
     wfcrot       :     79.44s CPU     14.61s WALL (     243 calls)

     Called by *cgdiagg:
     h_psi        :   1369.69s CPU    187.36s WALL (   69550 calls)
     s_psi        :    223.52s CPU     32.43s WALL (  138857 calls)

     Called by h_psi:
     h_psi:calbec :    140.38s CPU     20.01s WALL (   69550 calls)
     vloc_psi     :   1058.59s CPU    143.87s WALL (   69550 calls)
     add_vuspsi   :    164.47s CPU     22.66s WALL (   69550 calls)
     hs_1psi      :   1415.29s CPU    190.42s WALL (   69307 calls)
     s_1psi       :    211.17s CPU     31.34s WALL (   69307 calls)

     General routines
     calbec       :    238.16s CPU     34.44s WALL (  138857 calls)
     fft          :      0.06s CPU      0.06s WALL (      13 calls)
     ffts         :      0.00s CPU      0.00s WALL (       1 calls)
     fftw         :    824.03s CPU    111.20s WALL (  152930 calls)
     interpolate  :      0.01s CPU      0.01s WALL (       1 calls)
     davcio       :      0.39s CPU      0.08s WALL (     168 calls)

     Parallel routines

     PWSCF        :  31m35.64s CPU   4m24.43s WALL


   This run was terminated on:  16:28:22  24Jan2026            

=------------------------------------------------------------------------------=
   JOB DONE.
=------------------------------------------------------------------------------=
