
     Program BANDS v.7.2 starts on 24Jan2026 at 16:22:11 

     This program is part of the open-source Quantum ESPRESSO suite
     for quantum simulation of materials; please cite
         "P. Giannozzi et al., J. Phys.:Condens. Matter 21 395502 (2009);
         "P. Giannozzi et al., J. Phys.:Condens. Matter 29 465901 (2017);
         "P. Giannozzi et al., J. Chem. Phys. 152 154105 (2020);
          URL http://www.quantum-espresso.org", 
     in publications or presentations arising from this work. More details at
     http://www.quantum-espresso.org/quote

     Parallel version (MPI), running on     1 processors

     MPI processes distributed on     1 nodes
     0 MiB available memory on the printing compute node when the environment starts


     Reading xml data from directory:

     /Users/vittoriodibona/Desktop/Tutorial_LAMMPS/Esame/CopperQE/3_electronic/tmp/Cu_fcc.save/
     file Cu.pbe-dn-kjpaw_psl.1.0.0.UPF: wavefunction(s)  4S 3D renormalized

     IMPORTANT: XC functional enforced from input :
     Exchange-correlation= PBE
                           (   1   4   3   4   0   0   0)
     Any further DFT definition will be discarded
     Please, verify this is what you really want


     G-vector sticks info
     --------------------
     sticks:   dense  smooth     PW     G-vecs:    dense   smooth      PW
     Sum        2989    1201    373               123449    31343    5449

     Using Slab Decomposition

     Reading collected, re-writing distributed wavefunctions
     high-symmetry point:  0.0000 0.0000 0.0000   x coordinate   0.0000
     high-symmetry point:  0.0000 0.0000 1.0000   x coordinate   1.0000
     high-symmetry point:  0.5000 0.0000 1.0000   x coordinate   1.5000
     high-symmetry point:  0.7500 0.7500 0.0000   x coordinate   2.7748
     high-symmetry point:  0.0000 0.0000 0.0000   x coordinate   3.8354

     Plottable bands (eV) written to file /Users/vittoriodibona/Desktop/Tutorial_LAMMPS/Esame/CopperQE/3_electronic/bands.dat.gnu
     Bands written to file /Users/vittoriodibona/Desktop/Tutorial_LAMMPS/Esame/CopperQE/3_electronic/bands.dat

 **************************************************************************

                    xk=(   0.00000,   0.00000,   0.00000  )

     point group O_h (m-3m) 
     there are 10 classes
     the character table:

       E     8C3   3C2   6C4   6C2'  i     8S6   3s_h  6S4   6s_d 
A_1g   1.00  1.00  1.00  1.00  1.00  1.00  1.00  1.00  1.00  1.00
A_2g   1.00  1.00  1.00 -1.00 -1.00  1.00  1.00  1.00 -1.00 -1.00
E_g    2.00 -1.00  2.00  0.00  0.00  2.00 -1.00  2.00  0.00  0.00
T_1g   3.00  0.00 -1.00  1.00 -1.00  3.00  0.00 -1.00  1.00 -1.00
T_2g   3.00  0.00 -1.00 -1.00  1.00  3.00  0.00 -1.00 -1.00  1.00
A_1u   1.00  1.00  1.00  1.00  1.00 -1.00 -1.00 -1.00 -1.00 -1.00
A_2u   1.00  1.00  1.00 -1.00 -1.00 -1.00 -1.00 -1.00  1.00  1.00
E_u    2.00 -1.00  2.00  0.00  0.00 -2.00  1.00 -2.00  0.00  0.00
T_1u   3.00  0.00 -1.00  1.00 -1.00 -3.00  0.00  1.00 -1.00  1.00
T_2u   3.00  0.00 -1.00 -1.00  1.00 -3.00  0.00  1.00  1.00 -1.00

     the symmetry operations in each class and the name of the first element:

     E        1
                                                                 
     8C3     17   19   20   18   24   21   22   23
                                                                 
     3C2      2    4    3
                                                                 
     6C4      7    8   15   16   12   11
                                                                 
     6C2'     5    6   14   13   10    9
                                                                 
     i       25
                                                                 
     8S6     41   43   44   42   48   45   46   47
                                                                 
     3s_h    26   28   27
                                                                 
     6S4     31   32   39   40   36   35
                                                                 
     6s_d    29   30   38   37   34   33
                                                                 

     Band symmetry, O_h (m-3m)  point group:

     e(  1 -  1) =      3.14794  eV     1   --> A_1g G_1   G_1+
     e(  2 -  4) =      7.64606  eV     3   --> A_1g G_1   G_1+
     e(  2 -  4) =      7.64606  eV     3   --> E_g  G_12  G_3+
     e(  5 -  7) =      8.10596  eV     3   --> T_2g G_25' G_5+
     e(  8 - 10) =      9.48915  eV     3   --> T_2g G_25' G_5+
     e( 11 - 12) =     10.30503  eV     2   --> E_g  G_12  G_3+
     e( 13 - 15) =     10.85048  eV     3   --> A_2g G_2   G_2+
     e( 13 - 15) =     10.85048  eV     3   --> E_g  G_12  G_3+
     e( 16 - 21) =     11.01034  eV     6   --> T_1g G_15' G_4+
     e( 16 - 21) =     11.01034  eV     6   --> T_2g G_25' G_5+
     e( 22 - 24) =     13.92810  eV     3   --> T_1u G_15  G_4-
     e( 25 - 26) =     19.47698  eV     2   -->   ?

 **************************************************************************

 **************************************************************************

                    xk=(   0.00000,   0.00000,   0.05000  )

     point group C_4v (4mm) 
     there are  5 classes
     the character table:

       E     2C4   C2    2s_v  2s_d 
A_1    1.00  1.00  1.00  1.00  1.00
A_2    1.00  1.00  1.00 -1.00 -1.00
B_1    1.00 -1.00  1.00  1.00 -1.00
B_2    1.00 -1.00  1.00 -1.00  1.00
E      2.00  0.00 -2.00  0.00  0.00

     the symmetry operations in each class and the name of the first element:

     E        1
                                                                 
     2C4      3    4
                                                                 
     C2       2
                                                                 
     2s_v     5    6
                                                                 
     2s_d     7    8
                                                                 

     Band symmetry, C_4v (4mm)  point group:

     e(  1 -  1) =      3.17810  eV     1   --> A_1  G_1 D_1   
     e(  2 -  2) =      7.64560  eV     1   --> A_1  G_1 D_1   
     e(  3 -  4) =      7.66030  eV     2   --> A_1  G_1 D_1   
     e(  3 -  4) =      7.66030  eV     2   --> B_1  G_3 D_2   
     e(  5 -  5) =      8.11402  eV     1   --> B_2  G_4 D_2'  
     e(  6 -  7) =      8.11436  eV     2   --> E    G_5 D_5   
     e(  8 -  8) =      9.48016  eV     1   --> B_2  G_4 D_2'  
     e(  9 - 10) =      9.49630  eV     2   --> E    G_5 D_5   
     e( 11 - 11) =     10.29687  eV     1   --> A_1  G_1 D_1   
     e( 12 - 12) =     10.30831  eV     1   --> B_1  G_3 D_2   
     e( 13 - 14) =     10.83994  eV     2   --> A_1  G_1 D_1   
     e( 13 - 14) =     10.83994  eV     2   --> B_1  G_3 D_2   
     e( 15 - 15) =     10.84706  eV     1   --> B_1  G_3 D_2   
     e( 16 - 17) =     10.95382  eV     2   --> E    G_5 D_5   
     e( 18 - 19) =     10.99785  eV     2   --> E    G_5 D_5   
     e( 20 - 21) =     11.01036  eV     2   --> A_2  G_2 D_1'  
     e( 20 - 21) =     11.01036  eV     2   --> B_2  G_4 D_2'  
     e( 22 - 22) =     13.72820  eV     1   --> A_1  G_1 D_1   
     e( 23 - 24) =     14.01159  eV     2   --> E    G_5 D_5   
     e( 25 - 26) =     19.48803  eV     2   --> A_1  G_1 D_1   
     e( 25 - 26) =     19.48803  eV     2   --> B_1  G_3 D_2   

 **************************************************************************

 **************************************************************************

                    xk=(   0.00000,   0.00000,   0.10000  )

     Band symmetry, C_4v (4mm)  point group:

     e(  1 -  1) =      3.26836  eV     1   --> A_1  G_1 D_1   
     e(  2 -  2) =      7.64212  eV     1   --> A_1  G_1 D_1   
     e(  3 -  4) =      7.70230  eV     2   --> A_1  G_1 D_1   
     e(  3 -  4) =      7.70230  eV     2   --> B_1  G_3 D_2   
     e(  5 -  5) =      8.13804  eV     1   --> B_2  G_4 D_2'  
     e(  6 -  7) =      8.13965  eV     2   --> E    G_5 D_5   
     e(  8 -  8) =      9.45344  eV     1   --> B_2  G_4 D_2'  
     e(  9 - 10) =      9.51769  eV     2   --> E    G_5 D_5   
     e( 11 - 11) =     10.27274  eV     1   --> A_1  G_1 D_1   
     e( 12 - 12) =     10.31808  eV     1   --> B_1  G_3 D_2   
     e( 13 - 14) =     10.80119  eV     2   --> E    G_5 D_5   
     e( 15 - 16) =     10.80866  eV     2   --> A_1  G_1 D_1   
     e( 15 - 16) =     10.80866  eV     2   --> B_1  G_3 D_2   
     e( 17 - 17) =     10.83685  eV     1   --> B_1  G_3 D_2   
     e( 18 - 19) =     10.96098  eV     2   --> E    G_5 D_5   
     e( 20 - 21) =     11.01042  eV     2   --> A_2  G_2 D_1'  
     e( 20 - 21) =     11.01042  eV     2   --> B_2  G_4 D_2'  
     e( 22 - 22) =     13.21996  eV     1   --> A_1  G_1 D_1   
     e( 23 - 24) =     14.24506  eV     2   --> E    G_5 D_5   
     e( 25 - 26) =     19.52157  eV     2   --> A_1  G_1 D_1   
     e( 25 - 26) =     19.52157  eV     2   --> B_1  G_3 D_2   

 **************************************************************************

 **************************************************************************

                    xk=(   0.00000,   0.00000,   0.15000  )

     Band symmetry, C_4v (4mm)  point group:

     e(  1 -  1) =      3.41804  eV     1   --> A_1  G_1 D_1   
     e(  2 -  2) =      7.62894  eV     1   --> A_1  G_1 D_1   
     e(  3 -  4) =      7.76992  eV     2   --> A_1  G_1 D_1   
     e(  3 -  4) =      7.76992  eV     2   --> B_1  G_3 D_2   
     e(  5 -  5) =      8.17753  eV     1   --> B_2  G_4 D_2'  
     e(  6 -  7) =      8.18195  eV     2   --> E    G_5 D_5   
     e(  8 -  8) =      9.40978  eV     1   --> B_2  G_4 D_2'  
     e(  9 - 10) =      9.55316  eV     2   --> E    G_5 D_5   
     e( 11 - 11) =     10.23362  eV     1   --> A_1  G_1 D_1   
     e( 12 - 12) =     10.33413  eV     1   --> B_1  G_3 D_2   
     e( 13 - 14) =     10.58757  eV     2   --> E    G_5 D_5   
     e( 15 - 16) =     10.75766  eV     2   --> A_1  G_1 D_1   
     e( 15 - 16) =     10.75766  eV     2   --> B_1  G_3 D_2   
     e( 17 - 17) =     10.82014  eV     1   --> B_1  G_3 D_2   
     e( 18 - 19) =     10.90162  eV     2   --> E    G_5 D_5   
     e( 20 - 21) =     11.01050  eV     2   --> A_2  G_2 D_1'  
     e( 20 - 21) =     11.01050  eV     2   --> B_2  G_4 D_2'  
     e( 22 - 22) =     12.56355  eV     1   --> A_1  G_1 D_1   
     e( 23 - 24) =     14.59318  eV     2   --> E    G_5 D_5   
     e( 25 - 26) =     19.57875  eV     2   --> A_1  G_1 D_1   
     e( 25 - 26) =     19.57875  eV     2   --> B_1  G_3 D_2   

 **************************************************************************

 **************************************************************************

                    xk=(   0.00000,   0.00000,   0.20000  )

     Band symmetry, C_4v (4mm)  point group:

     e(  1 -  1) =      3.62593  eV     1   --> A_1  G_1 D_1   
     e(  2 -  2) =      7.59335  eV     1   --> A_1  G_1 D_1   
     e(  3 -  4) =      7.85943  eV     2   --> A_1  G_1 D_1   
     e(  3 -  4) =      7.85943  eV     2   --> B_1  G_3 D_2   
     e(  5 -  5) =      8.23162  eV     1   --> B_2  G_4 D_2'  
     e(  6 -  7) =      8.24153  eV     2   --> E    G_5 D_5   
     e(  8 -  8) =      9.35040  eV     1   --> B_2  G_4 D_2'  
     e(  9 - 10) =      9.60238  eV     2   --> E    G_5 D_5   
     e( 11 - 11) =     10.18126  eV     1   --> A_1  G_1 D_1   
     e( 12 - 13) =     10.34410  eV     2   --> E    G_5 D_5   
     e( 14 - 14) =     10.35608  eV     1   --> B_1  G_3 D_2   
     e( 15 - 16) =     10.68900  eV     2   --> A_1  G_1 D_1   
     e( 15 - 16) =     10.68900  eV     2   --> B_1  G_3 D_2   
     e( 17 - 17) =     10.79735  eV     1   --> B_1  G_3 D_2   
     e( 18 - 19) =     10.82253  eV     2   --> E    G_5 D_5   
     e( 20 - 21) =     11.01060  eV     2   --> A_2  G_2 D_1'  
     e( 20 - 21) =     11.01060  eV     2   --> B_2  G_4 D_2'  
     e( 22 - 22) =     11.87570  eV     1   --> A_1  G_1 D_1   
     e( 23 - 24) =     15.02446  eV     2   --> E    G_5 D_5   
     e( 25 - 26) =     19.66147  eV     2   --> A_1  G_1 D_1   
     e( 25 - 26) =     19.66147  eV     2   --> B_1  G_3 D_2   

 **************************************************************************

 **************************************************************************

                    xk=(   0.00000,   0.00000,   0.25000  )

     Band symmetry, C_4v (4mm)  point group:

     e(  1 -  1) =      3.89017  eV     1   --> A_1  G_1 D_1   
     e(  2 -  2) =      7.51493  eV     1   --> A_1  G_1 D_1   
     e(  3 -  4) =      7.96529  eV     2   --> A_1  G_1 D_1   
     e(  3 -  4) =      7.96529  eV     2   --> B_1  G_3 D_2   
     e(  5 -  5) =      8.29922  eV     1   --> B_2  G_4 D_2'  
     e(  6 -  7) =      8.31875  eV     2   --> E    G_5 D_5   
     e(  8 -  8) =      9.27696  eV     1   --> B_2  G_4 D_2'  
     e(  9 - 10) =      9.66490  eV     2   --> E    G_5 D_5   
     e( 11 - 12) =     10.09148  eV     2   --> E    G_5 D_5   
     e( 13 - 13) =     10.11831  eV     1   --> A_1  G_1 D_1   
     e( 14 - 14) =     10.38341  eV     1   --> B_1  G_3 D_2   
     e( 15 - 16) =     10.60618  eV     2   --> A_1  G_1 D_1   
     e( 15 - 16) =     10.60618  eV     2   --> B_1  G_3 D_2   
     e( 17 - 18) =     10.72735  eV     2   --> E    G_5 D_5   
     e( 19 - 19) =     10.76910  eV     1   --> B_1  G_3 D_2   
     e( 20 - 21) =     11.01074  eV     2   --> A_2  G_2 D_1'  
     e( 20 - 21) =     11.01074  eV     2   --> B_2  G_4 D_2'  
     e( 22 - 22) =     11.23126  eV     1   --> A_1  G_1 D_1   
     e( 23 - 24) =     15.51783  eV     2   --> E    G_5 D_5   
     e( 25 - 26) =     19.77224  eV     2   --> A_1  G_1 D_1   
     e( 25 - 26) =     19.77224  eV     2   --> B_1  G_3 D_2   

 **************************************************************************

 **************************************************************************

                    xk=(   0.00000,   0.00000,   0.30000  )

     Band symmetry, C_4v (4mm)  point group:

     e(  1 -  1) =      4.20797  eV     1   --> A_1  G_1 D_1   
     e(  2 -  2) =      7.36595  eV     1   --> A_1  G_1 D_1   
     e(  3 -  4) =      8.07973  eV     2   --> A_1  G_1 D_1   
     e(  3 -  4) =      8.07973  eV     2   --> B_1  G_3 D_2   
     e(  5 -  5) =      8.37883  eV     1   --> B_2  G_4 D_2'  
     e(  6 -  7) =      8.41397  eV     2   --> E    G_5 D_5   
     e(  8 -  8) =      9.19150  eV     1   --> B_2  G_4 D_2'  
     e(  9 - 10) =      9.73999  eV     2   --> E    G_5 D_5   
     e( 11 - 12) =      9.84203  eV     2   --> E    G_5 D_5   
     e( 13 - 13) =     10.04846  eV     1   --> A_1  G_1 D_1   
     e( 14 - 14) =     10.41548  eV     1   --> B_1  G_3 D_2   
     e( 15 - 16) =     10.51465  eV     2   --> A_1  G_1 D_1   
     e( 15 - 16) =     10.51465  eV     2   --> B_1  G_3 D_2   
     e( 17 - 18) =     10.61991  eV     2   --> E    G_5 D_5   
     e( 19 - 19) =     10.68524  eV     1   --> A_1  G_1 D_1   
     e( 20 - 20) =     10.73608  eV     1   --> B_1  G_3 D_2   
     e( 21 - 22) =     11.01085  eV     2   --> A_2  G_2 D_1'  
     e( 21 - 22) =     11.01085  eV     2   --> B_2  G_4 D_2'  
     e( 23 - 24) =     16.06035  eV     2   --> E    G_5 D_5   
     e( 25 - 26) =     19.91403  eV     2   --> A_1  G_1 D_1   
     e( 25 - 26) =     19.91403  eV     2   --> B_1  G_3 D_2   

 **************************************************************************

 **************************************************************************

                    xk=(   0.00000,   0.00000,   0.35000  )

     Band symmetry, C_4v (4mm)  point group:

     e(  1 -  1) =      4.57524  eV     1   --> A_1  G_1 D_1   
     e(  2 -  2) =      7.12071  eV     1   --> A_1  G_1 D_1   
     e(  3 -  4) =      8.19234  eV     2   --> A_1  G_1 D_1   
     e(  3 -  4) =      8.19234  eV     2   --> B_1  G_3 D_2   
     e(  5 -  5) =      8.46872  eV     1   --> B_2  G_4 D_2'  
     e(  6 -  7) =      8.52757  eV     2   --> E    G_5 D_5   
     e(  8 -  8) =      9.09634  eV     1   --> B_2  G_4 D_2'  
     e(  9 - 10) =      9.60297  eV     2   --> E    G_5 D_5   
     e( 11 - 12) =      9.82685  eV     2   --> E    G_5 D_5   
     e( 13 - 13) =      9.97704  eV     1   --> A_1  G_1 D_1   
     e( 14 - 14) =     10.27716  eV     1   --> A_1  G_1 D_1   
     e( 15 - 16) =     10.42260  eV     2   --> A_1  G_1 D_1   
     e( 15 - 16) =     10.42260  eV     2   --> B_1  G_3 D_2   
     e( 17 - 17) =     10.45155  eV     1   --> B_1  G_3 D_2   
     e( 18 - 19) =     10.50424  eV     2   --> E    G_5 D_5   
     e( 20 - 20) =     10.69919  eV     1   --> B_1  G_3 D_2   
     e( 21 - 22) =     11.01095  eV     2   --> A_2  G_2 D_1'  
     e( 21 - 22) =     11.01095  eV     2   --> B_2  G_4 D_2'  
     e( 23 - 24) =     16.64413  eV     2   --> E    G_5 D_5   
     e( 25 - 26) =     20.08975  eV     2   --> A_1  G_1 D_1   
     e( 25 - 26) =     20.08975  eV     2   --> B_1  G_3 D_2   

 **************************************************************************

 **************************************************************************

                    xk=(   0.00000,   0.00000,   0.40000  )

     Band symmetry, C_4v (4mm)  point group:

     e(  1 -  1) =      4.98580  eV     1   --> A_1  G_1 D_1   
     e(  2 -  2) =      6.77469  eV     1   --> A_1  G_1 D_1   
     e(  3 -  4) =      8.28987  eV     2   --> A_1  G_1 D_1   
     e(  3 -  4) =      8.28987  eV     2   --> B_1  G_3 D_2   
     e(  5 -  5) =      8.56685  eV     1   --> B_2  G_4 D_2'  
     e(  6 -  7) =      8.65991  eV     2   --> E    G_5 D_5   
     e(  8 -  8) =      8.99400  eV     1   --> B_2  G_4 D_2'  
     e(  9 - 10) =      9.37848  eV     2   --> E    G_5 D_5   
     e( 11 - 11) =      9.91152  eV     1   --> A_1  G_1 D_1   
     e( 12 - 13) =      9.92426  eV     2   --> E    G_5 D_5   
     e( 14 - 14) =     10.01847  eV     1   --> A_1  G_1 D_1   
     e( 15 - 16) =     10.34133  eV     2   --> A_1  G_1 D_1   
     e( 15 - 16) =     10.34133  eV     2   --> B_1  G_3 D_2   
     e( 17 - 18) =     10.38415  eV     2   --> E    G_5 D_5   
     e( 19 - 19) =     10.49075  eV     1   --> B_1  G_3 D_2   
     e( 20 - 20) =     10.65929  eV     1   --> B_1  G_3 D_2   
     e( 21 - 22) =     11.01104  eV     2   --> A_2  G_2 D_1'  
     e( 21 - 22) =     11.01104  eV     2   --> B_2  G_4 D_2'  
     e( 23 - 24) =     17.26417  eV     2   --> E    G_5 D_5   
     e( 25 - 26) =     20.04953  eV     2   -->   ?

 **************************************************************************

 **************************************************************************

                    xk=(   0.00000,   0.00000,   0.45000  )

     Band symmetry, C_4v (4mm)  point group:

     e(  1 -  1) =      5.43019  eV     1   --> A_1  G_1 D_1   
     e(  2 -  2) =      6.35289  eV     1   --> A_1  G_1 D_1   
     e(  3 -  4) =      8.35732  eV     2   --> A_1  G_1 D_1   
     e(  3 -  4) =      8.35732  eV     2   --> B_1  G_3 D_2   
     e(  5 -  5) =      8.67096  eV     1   --> B_2  G_4 D_2'  
     e(  6 -  7) =      8.81124  eV     2   --> E    G_5 D_5   
     e(  8 -  8) =      8.88719  eV     1   --> B_2  G_4 D_2'  
     e(  9 - 10) =      9.17093  eV     2   --> E    G_5 D_5   
     e( 11 - 11) =      9.86268  eV     1   --> A_1  G_1 D_1   
     e( 12 - 12) =      9.88739  eV     1   --> A_1  G_1 D_1   
     e( 13 - 14) =     10.03076  eV     2   --> E    G_5 D_5   
     e( 15 - 16) =     10.26319  eV     2   --> E    G_5 D_5   
     e( 17 - 18) =     10.28427  eV     2   --> A_1  G_1 D_1   
     e( 17 - 18) =     10.28427  eV     2   --> B_1  G_3 D_2   
     e( 19 - 19) =     10.53214  eV     1   --> B_1  G_3 D_2   
     e( 20 - 20) =     10.61747  eV     1   --> B_1  G_3 D_2   
     e( 21 - 22) =     11.01110  eV     2   --> A_2  G_2 D_1'  
     e( 21 - 22) =     11.01110  eV     2   --> B_2  G_4 D_2'  
     e( 23 - 24) =     17.91707  eV     2   --> E    G_5 D_5   
     e( 25 - 26) =     19.31186  eV     2   --> E    G_5 D_5   

 **************************************************************************

 **************************************************************************

                    xk=(   0.00000,   0.00000,   0.50000  )

     point group D_4h(4/mmm)
     there are 10 classes
     the character table:

       E     2C4   C2    2C2'  2C2'' i     2S4   s_h   2s_v  2s_d 
A_1g   1.00  1.00  1.00  1.00  1.00  1.00  1.00  1.00  1.00  1.00
A_2g   1.00  1.00  1.00 -1.00 -1.00  1.00  1.00  1.00 -1.00 -1.00
B_1g   1.00 -1.00  1.00  1.00 -1.00  1.00 -1.00  1.00  1.00 -1.00
B_2g   1.00 -1.00  1.00 -1.00  1.00  1.00 -1.00  1.00 -1.00  1.00
E_g    2.00  0.00 -2.00  0.00  0.00  2.00  0.00 -2.00  0.00  0.00
A_1u   1.00  1.00  1.00  1.00  1.00 -1.00 -1.00 -1.00 -1.00 -1.00
A_2u   1.00  1.00  1.00 -1.00 -1.00 -1.00 -1.00 -1.00  1.00  1.00
B_1u   1.00 -1.00  1.00  1.00 -1.00 -1.00  1.00 -1.00 -1.00  1.00
B_2u   1.00 -1.00  1.00 -1.00  1.00 -1.00  1.00 -1.00  1.00 -1.00
E_u    2.00  0.00 -2.00  0.00  0.00 -2.00  0.00  2.00  0.00  0.00

     the symmetry operations in each class and the name of the first element:

     E        1
                                                                 
     2C4      7    8
                                                                 
     C2       2
                                                                 
     2C2'     3    4
                                                                 
     2C2''    5    6
                                                                 
     i        9
                                                                 
     2S4     15   16
                                                                 
     s_h     10
                                                                 
     2s_v    11   12
                                                                 
     2s_d    13   14
                                                                 

     Band symmetry, D_4h(4/mmm) point group:

     e(  1 -  2) =      5.89360  eV     2   --> A_1g X_1  M_1  
     e(  1 -  2) =      5.89360  eV     2   --> A_2u X_4' M_4' 
     e(  3 -  4) =      8.38158  eV     2   --> B_1g X_2  M_2  
     e(  3 -  4) =      8.38158  eV     2   --> A_2u X_4' M_4' 
     e(  5 -  6) =      8.77861  eV     2   --> B_2g X_3  M_3  
     e(  5 -  6) =      8.77861  eV     2   --> B_1u X_2' M_2' 
     e(  7 - 10) =      8.98160  eV     4   --> E_g  X_5  M_5  
     e(  7 - 10) =      8.98160  eV     4   --> E_u  X_5' M_5' 
     e( 11 - 12) =      9.84663  eV     2   --> A_1g X_1  M_1  
     e( 11 - 12) =      9.84663  eV     2   --> A_2u X_4' M_4' 
     e( 13 - 16) =     10.14449  eV     4   --> E_g  X_5  M_5  
     e( 13 - 16) =     10.14449  eV     4   --> E_u  X_5' M_5' 
     e( 17 - 18) =     10.26354  eV     2   --> A_1g X_1  M_1  
     e( 17 - 18) =     10.26354  eV     2   --> B_2u X_3' M_3' 
     e( 19 - 20) =     10.57472  eV     2   --> B_1g X_2  M_2  
     e( 19 - 20) =     10.57472  eV     2   --> B_2u X_3' M_3' 
     e( 21 - 22) =     11.01109  eV     2   --> B_2g X_3  M_3  
     e( 21 - 22) =     11.01109  eV     2   --> A_1u X_1' M_1' 
     e( 23 - 26) =     18.60034  eV     4   --> E_g  X_5  M_5  
     e( 23 - 26) =     18.60034  eV     4   --> E_u  X_5' M_5' 

 **************************************************************************

 **************************************************************************

                    xk=(   0.00000,   0.00000,   0.55000  )

     point group C_4v (4mm) 
     there are  5 classes
     the character table:

       E     2C4   C2    2s_v  2s_d 
A_1    1.00  1.00  1.00  1.00  1.00
A_2    1.00  1.00  1.00 -1.00 -1.00
B_1    1.00 -1.00  1.00  1.00 -1.00
B_2    1.00 -1.00  1.00 -1.00  1.00
E      2.00  0.00 -2.00  0.00  0.00

     the symmetry operations in each class and the name of the first element:

     E        1
                                                                 
     2C4      3    4
                                                                 
     C2       2
                                                                 
     2s_v     5    6
                                                                 
     2s_d     7    8
                                                                 

     Band symmetry, C_4v (4mm)  point group:

     e(  1 -  1) =      5.43019  eV     1   --> A_1  G_1 D_1   
     e(  2 -  2) =      6.35289  eV     1   --> A_1  G_1 D_1   
     e(  3 -  4) =      8.35732  eV     2   --> A_1  G_1 D_1   
     e(  3 -  4) =      8.35732  eV     2   --> B_1  G_3 D_2   
     e(  5 -  5) =      8.67096  eV     1   --> B_2  G_4 D_2'  
     e(  6 -  7) =      8.81124  eV     2   --> E    G_5 D_5   
     e(  8 -  8) =      8.88719  eV     1   --> B_2  G_4 D_2'  
     e(  9 - 10) =      9.17093  eV     2   --> E    G_5 D_5   
     e( 11 - 11) =      9.86268  eV     1   --> A_1  G_1 D_1   
     e( 12 - 12) =      9.88739  eV     1   --> A_1  G_1 D_1   
     e( 13 - 14) =     10.03076  eV     2   --> E    G_5 D_5   
     e( 15 - 16) =     10.26319  eV     2   --> E    G_5 D_5   
     e( 17 - 18) =     10.28427  eV     2   --> A_1  G_1 D_1   
     e( 17 - 18) =     10.28427  eV     2   --> B_1  G_3 D_2   
     e( 19 - 19) =     10.53214  eV     1   --> B_1  G_3 D_2   
     e( 20 - 20) =     10.61747  eV     1   --> B_1  G_3 D_2   
     e( 21 - 22) =     11.01110  eV     2   --> A_2  G_2 D_1'  
     e( 21 - 22) =     11.01110  eV     2   --> B_2  G_4 D_2'  
     e( 23 - 24) =     17.91707  eV     2   --> E    G_5 D_5   
     e( 25 - 26) =     19.31186  eV     2   --> E    G_5 D_5   

 **************************************************************************

 **************************************************************************

                    xk=(   0.00000,   0.00000,   0.60000  )

     Band symmetry, C_4v (4mm)  point group:

     e(  1 -  1) =      4.98580  eV     1   --> A_1  G_1 D_1   
     e(  2 -  2) =      6.77469  eV     1   --> A_1  G_1 D_1   
     e(  3 -  4) =      8.28987  eV     2   --> A_1  G_1 D_1   
     e(  3 -  4) =      8.28987  eV     2   --> B_1  G_3 D_2   
     e(  5 -  5) =      8.56685  eV     1   --> B_2  G_4 D_2'  
     e(  6 -  7) =      8.65991  eV     2   --> E    G_5 D_5   
     e(  8 -  8) =      8.99400  eV     1   --> B_2  G_4 D_2'  
     e(  9 - 10) =      9.37848  eV     2   --> E    G_5 D_5   
     e( 11 - 11) =      9.91152  eV     1   --> A_1  G_1 D_1   
     e( 12 - 13) =      9.92426  eV     2   --> E    G_5 D_5   
     e( 14 - 14) =     10.01847  eV     1   --> A_1  G_1 D_1   
     e( 15 - 16) =     10.34133  eV     2   --> A_1  G_1 D_1   
     e( 15 - 16) =     10.34133  eV     2   --> B_1  G_3 D_2   
     e( 17 - 18) =     10.38415  eV     2   --> E    G_5 D_5   
     e( 19 - 19) =     10.49075  eV     1   --> B_1  G_3 D_2   
     e( 20 - 20) =     10.65929  eV     1   --> B_1  G_3 D_2   
     e( 21 - 22) =     11.01104  eV     2   --> A_2  G_2 D_1'  
     e( 21 - 22) =     11.01104  eV     2   --> B_2  G_4 D_2'  
     e( 23 - 24) =     17.26417  eV     2   --> E    G_5 D_5   
     e( 25 - 25) =     20.04954  eV     1   -->   ?
     e( 26 - 26) =     20.04967  eV     1   -->   ?

 **************************************************************************

 **************************************************************************

                    xk=(   0.00000,   0.00000,   0.65000  )

     Band symmetry, C_4v (4mm)  point group:

     e(  1 -  1) =      4.57524  eV     1   --> A_1  G_1 D_1   
     e(  2 -  2) =      7.12071  eV     1   --> A_1  G_1 D_1   
     e(  3 -  4) =      8.19234  eV     2   --> A_1  G_1 D_1   
     e(  3 -  4) =      8.19234  eV     2   --> B_1  G_3 D_2   
     e(  5 -  5) =      8.46872  eV     1   --> B_2  G_4 D_2'  
     e(  6 -  7) =      8.52757  eV     2   --> E    G_5 D_5   
     e(  8 -  8) =      9.09634  eV     1   --> B_2  G_4 D_2'  
     e(  9 - 10) =      9.60297  eV     2   --> E    G_5 D_5   
     e( 11 - 12) =      9.82685  eV     2   --> E    G_5 D_5   
     e( 13 - 13) =      9.97704  eV     1   --> A_1  G_1 D_1   
     e( 14 - 14) =     10.27716  eV     1   --> A_1  G_1 D_1   
     e( 15 - 16) =     10.42260  eV     2   --> A_1  G_1 D_1   
     e( 15 - 16) =     10.42260  eV     2   --> B_1  G_3 D_2   
     e( 17 - 17) =     10.45155  eV     1   --> B_1  G_3 D_2   
     e( 18 - 19) =     10.50424  eV     2   --> E    G_5 D_5   
     e( 20 - 20) =     10.69919  eV     1   --> B_1  G_3 D_2   
     e( 21 - 22) =     11.01095  eV     2   --> A_2  G_2 D_1'  
     e( 21 - 22) =     11.01095  eV     2   --> B_2  G_4 D_2'  
     e( 23 - 24) =     16.64413  eV     2   --> E    G_5 D_5   
     e( 25 - 26) =     20.08975  eV     2   --> A_1  G_1 D_1   
     e( 25 - 26) =     20.08975  eV     2   --> B_1  G_3 D_2   

 **************************************************************************

 **************************************************************************

                    xk=(   0.00000,   0.00000,   0.70000  )

     Band symmetry, C_4v (4mm)  point group:

     e(  1 -  1) =      4.20797  eV     1   --> A_1  G_1 D_1   
     e(  2 -  2) =      7.36595  eV     1   --> A_1  G_1 D_1   
     e(  3 -  4) =      8.07973  eV     2   --> A_1  G_1 D_1   
     e(  3 -  4) =      8.07973  eV     2   --> B_1  G_3 D_2   
     e(  5 -  5) =      8.37883  eV     1   --> B_2  G_4 D_2'  
     e(  6 -  7) =      8.41397  eV     2   --> E    G_5 D_5   
     e(  8 -  8) =      9.19150  eV     1   --> B_2  G_4 D_2'  
     e(  9 - 10) =      9.73999  eV     2   --> E    G_5 D_5   
     e( 11 - 12) =      9.84203  eV     2   --> E    G_5 D_5   
     e( 13 - 13) =     10.04846  eV     1   --> A_1  G_1 D_1   
     e( 14 - 14) =     10.41548  eV     1   --> B_1  G_3 D_2   
     e( 15 - 16) =     10.51465  eV     2   --> A_1  G_1 D_1   
     e( 15 - 16) =     10.51465  eV     2   --> B_1  G_3 D_2   
     e( 17 - 18) =     10.61991  eV     2   --> E    G_5 D_5   
     e( 19 - 19) =     10.68524  eV     1   --> A_1  G_1 D_1   
     e( 20 - 20) =     10.73608  eV     1   --> B_1  G_3 D_2   
     e( 21 - 22) =     11.01085  eV     2   --> A_2  G_2 D_1'  
     e( 21 - 22) =     11.01085  eV     2   --> B_2  G_4 D_2'  
     e( 23 - 24) =     16.06035  eV     2   --> E    G_5 D_5   
     e( 25 - 26) =     19.91403  eV     2   --> A_1  G_1 D_1   
     e( 25 - 26) =     19.91403  eV     2   --> B_1  G_3 D_2   

 **************************************************************************

 **************************************************************************

                    xk=(   0.00000,   0.00000,   0.75000  )

     Band symmetry, C_4v (4mm)  point group:

     e(  1 -  1) =      3.89017  eV     1   --> A_1  G_1 D_1   
     e(  2 -  2) =      7.51493  eV     1   --> A_1  G_1 D_1   
     e(  3 -  4) =      7.96529  eV     2   --> A_1  G_1 D_1   
     e(  3 -  4) =      7.96529  eV     2   --> B_1  G_3 D_2   
     e(  5 -  5) =      8.29922  eV     1   --> B_2  G_4 D_2'  
     e(  6 -  7) =      8.31876  eV     2   --> E    G_5 D_5   
     e(  8 -  8) =      9.27696  eV     1   --> B_2  G_4 D_2'  
     e(  9 - 10) =      9.66490  eV     2   --> E    G_5 D_5   
     e( 11 - 12) =     10.09148  eV     2   --> E    G_5 D_5   
     e( 13 - 13) =     10.11831  eV     1   --> A_1  G_1 D_1   
     e( 14 - 14) =     10.38341  eV     1   --> B_1  G_3 D_2   
     e( 15 - 16) =     10.60618  eV     2   --> A_1  G_1 D_1   
     e( 15 - 16) =     10.60618  eV     2   --> B_1  G_3 D_2   
     e( 17 - 18) =     10.72735  eV     2   --> E    G_5 D_5   
     e( 19 - 19) =     10.76910  eV     1   --> B_1  G_3 D_2   
     e( 20 - 21) =     11.01074  eV     2   --> A_2  G_2 D_1'  
     e( 20 - 21) =     11.01074  eV     2   --> B_2  G_4 D_2'  
     e( 22 - 22) =     11.23126  eV     1   --> A_1  G_1 D_1   
     e( 23 - 24) =     15.51783  eV     2   --> E    G_5 D_5   
     e( 25 - 26) =     19.77224  eV     2   --> A_1  G_1 D_1   
     e( 25 - 26) =     19.77224  eV     2   --> B_1  G_3 D_2   

 **************************************************************************

 **************************************************************************

                    xk=(   0.00000,   0.00000,   0.80000  )

     Band symmetry, C_4v (4mm)  point group:

     e(  1 -  1) =      3.62593  eV     1   --> A_1  G_1 D_1   
     e(  2 -  2) =      7.59335  eV     1   --> A_1  G_1 D_1   
     e(  3 -  4) =      7.85943  eV     2   --> A_1  G_1 D_1   
     e(  3 -  4) =      7.85943  eV     2   --> B_1  G_3 D_2   
     e(  5 -  5) =      8.23162  eV     1   --> B_2  G_4 D_2'  
     e(  6 -  7) =      8.24153  eV     2   --> E    G_5 D_5   
     e(  8 -  8) =      9.35040  eV     1   --> B_2  G_4 D_2'  
     e(  9 - 10) =      9.60238  eV     2   --> E    G_5 D_5   
     e( 11 - 11) =     10.18126  eV     1   --> A_1  G_1 D_1   
     e( 12 - 13) =     10.34410  eV     2   --> E    G_5 D_5   
     e( 14 - 14) =     10.35608  eV     1   --> B_1  G_3 D_2   
     e( 15 - 16) =     10.68900  eV     2   --> A_1  G_1 D_1   
     e( 15 - 16) =     10.68900  eV     2   --> B_1  G_3 D_2   
     e( 17 - 17) =     10.79735  eV     1   --> B_1  G_3 D_2   
     e( 18 - 19) =     10.82253  eV     2   --> E    G_5 D_5   
     e( 20 - 21) =     11.01060  eV     2   --> A_2  G_2 D_1'  
     e( 20 - 21) =     11.01060  eV     2   --> B_2  G_4 D_2'  
     e( 22 - 22) =     11.87570  eV     1   --> A_1  G_1 D_1   
     e( 23 - 24) =     15.02446  eV     2   --> E    G_5 D_5   
     e( 25 - 26) =     19.66147  eV     2   --> A_1  G_1 D_1   
     e( 25 - 26) =     19.66147  eV     2   --> B_1  G_3 D_2   

 **************************************************************************

 **************************************************************************

                    xk=(   0.00000,   0.00000,   0.85000  )

     Band symmetry, C_4v (4mm)  point group:

     e(  1 -  1) =      3.41804  eV     1   --> A_1  G_1 D_1   
     e(  2 -  2) =      7.62894  eV     1   --> A_1  G_1 D_1   
     e(  3 -  4) =      7.76992  eV     2   --> A_1  G_1 D_1   
     e(  3 -  4) =      7.76992  eV     2   --> B_1  G_3 D_2   
     e(  5 -  5) =      8.17753  eV     1   --> B_2  G_4 D_2'  
     e(  6 -  7) =      8.18195  eV     2   --> E    G_5 D_5   
     e(  8 -  8) =      9.40978  eV     1   --> B_2  G_4 D_2'  
     e(  9 - 10) =      9.55316  eV     2   --> E    G_5 D_5   
     e( 11 - 11) =     10.23362  eV     1   --> A_1  G_1 D_1   
     e( 12 - 12) =     10.33413  eV     1   --> B_1  G_3 D_2   
     e( 13 - 14) =     10.58757  eV     2   --> E    G_5 D_5   
     e( 15 - 16) =     10.75766  eV     2   --> A_1  G_1 D_1   
     e( 15 - 16) =     10.75766  eV     2   --> B_1  G_3 D_2   
     e( 17 - 17) =     10.82014  eV     1   --> B_1  G_3 D_2   
     e( 18 - 19) =     10.90162  eV     2   --> E    G_5 D_5   
     e( 20 - 21) =     11.01050  eV     2   --> A_2  G_2 D_1'  
     e( 20 - 21) =     11.01050  eV     2   --> B_2  G_4 D_2'  
     e( 22 - 22) =     12.56355  eV     1   --> A_1  G_1 D_1   
     e( 23 - 24) =     14.59318  eV     2   --> E    G_5 D_5   
     e( 25 - 26) =     19.57875  eV     2   --> A_1  G_1 D_1   
     e( 25 - 26) =     19.57875  eV     2   --> B_1  G_3 D_2   

 **************************************************************************

 **************************************************************************

                    xk=(   0.00000,   0.00000,   0.90000  )

     Band symmetry, C_4v (4mm)  point group:

     e(  1 -  1) =      3.26836  eV     1   --> A_1  G_1 D_1   
     e(  2 -  2) =      7.64212  eV     1   --> A_1  G_1 D_1   
     e(  3 -  4) =      7.70230  eV     2   --> A_1  G_1 D_1   
     e(  3 -  4) =      7.70230  eV     2   --> B_1  G_3 D_2   
     e(  5 -  5) =      8.13804  eV     1   --> B_2  G_4 D_2'  
     e(  6 -  7) =      8.13965  eV     2   --> E    G_5 D_5   
     e(  8 -  8) =      9.45344  eV     1   --> B_2  G_4 D_2'  
     e(  9 - 10) =      9.51769  eV     2   --> E    G_5 D_5   
     e( 11 - 11) =     10.27274  eV     1   --> A_1  G_1 D_1   
     e( 12 - 12) =     10.31808  eV     1   --> B_1  G_3 D_2   
     e( 13 - 14) =     10.80119  eV     2   --> E    G_5 D_5   
     e( 15 - 16) =     10.80866  eV     2   --> A_1  G_1 D_1   
     e( 15 - 16) =     10.80866  eV     2   --> B_1  G_3 D_2   
     e( 17 - 17) =     10.83685  eV     1   --> B_1  G_3 D_2   
     e( 18 - 19) =     10.96098  eV     2   --> E    G_5 D_5   
     e( 20 - 21) =     11.01042  eV     2   --> A_2  G_2 D_1'  
     e( 20 - 21) =     11.01042  eV     2   --> B_2  G_4 D_2'  
     e( 22 - 22) =     13.21996  eV     1   --> A_1  G_1 D_1   
     e( 23 - 24) =     14.24506  eV     2   --> E    G_5 D_5   
     e( 25 - 26) =     19.52157  eV     2   --> A_1  G_1 D_1   
     e( 25 - 26) =     19.52157  eV     2   --> B_1  G_3 D_2   

 **************************************************************************

 **************************************************************************

                    xk=(   0.00000,   0.00000,   0.95000  )

     Band symmetry, C_4v (4mm)  point group:

     e(  1 -  1) =      3.17810  eV     1   --> A_1  G_1 D_1   
     e(  2 -  2) =      7.64560  eV     1   --> A_1  G_1 D_1   
     e(  3 -  4) =      7.66030  eV     2   --> A_1  G_1 D_1   
     e(  3 -  4) =      7.66030  eV     2   --> B_1  G_3 D_2   
     e(  5 -  5) =      8.11402  eV     1   --> B_2  G_4 D_2'  
     e(  6 -  7) =      8.11436  eV     2   --> E    G_5 D_5   
     e(  8 -  8) =      9.48016  eV     1   --> B_2  G_4 D_2'  
     e(  9 - 10) =      9.49630  eV     2   --> E    G_5 D_5   
     e( 11 - 11) =     10.29687  eV     1   --> A_1  G_1 D_1   
     e( 12 - 12) =     10.30831  eV     1   --> B_1  G_3 D_2   
     e( 13 - 14) =     10.83994  eV     2   --> A_1  G_1 D_1   
     e( 13 - 14) =     10.83994  eV     2   --> B_1  G_3 D_2   
     e( 15 - 15) =     10.84706  eV     1   --> B_1  G_3 D_2   
     e( 16 - 17) =     10.95382  eV     2   --> E    G_5 D_5   
     e( 18 - 19) =     10.99785  eV     2   --> E    G_5 D_5   
     e( 20 - 21) =     11.01036  eV     2   --> A_2  G_2 D_1'  
     e( 20 - 21) =     11.01036  eV     2   --> B_2  G_4 D_2'  
     e( 22 - 22) =     13.72820  eV     1   --> A_1  G_1 D_1   
     e( 23 - 24) =     14.01159  eV     2   --> E    G_5 D_5   
     e( 25 - 26) =     19.48803  eV     2   --> A_1  G_1 D_1   
     e( 25 - 26) =     19.48803  eV     2   --> B_1  G_3 D_2   

 **************************************************************************

 **************************************************************************

                    xk=(   0.00000,   0.00000,   1.00000  )

     point group O_h (m-3m) 
     there are 10 classes
     the character table:

       E     8C3   3C2   6C4   6C2'  i     8S6   3s_h  6S4   6s_d 
A_1g   1.00  1.00  1.00  1.00  1.00  1.00  1.00  1.00  1.00  1.00
A_2g   1.00  1.00  1.00 -1.00 -1.00  1.00  1.00  1.00 -1.00 -1.00
E_g    2.00 -1.00  2.00  0.00  0.00  2.00 -1.00  2.00  0.00  0.00
T_1g   3.00  0.00 -1.00  1.00 -1.00  3.00  0.00 -1.00  1.00 -1.00
T_2g   3.00  0.00 -1.00 -1.00  1.00  3.00  0.00 -1.00 -1.00  1.00
A_1u   1.00  1.00  1.00  1.00  1.00 -1.00 -1.00 -1.00 -1.00 -1.00
A_2u   1.00  1.00  1.00 -1.00 -1.00 -1.00 -1.00 -1.00  1.00  1.00
E_u    2.00 -1.00  2.00  0.00  0.00 -2.00  1.00 -2.00  0.00  0.00
T_1u   3.00  0.00 -1.00  1.00 -1.00 -3.00  0.00  1.00 -1.00  1.00
T_2u   3.00  0.00 -1.00 -1.00  1.00 -3.00  0.00  1.00  1.00 -1.00

     the symmetry operations in each class and the name of the first element:

     E        1
                                                                 
     8C3     17   19   20   18   24   21   22   23
                                                                 
     3C2      2    4    3
                                                                 
     6C4      7    8   15   16   12   11
                                                                 
     6C2'     5    6   14   13   10    9
                                                                 
     i       25
                                                                 
     8S6     41   43   44   42   48   45   46   47
                                                                 
     3s_h    26   28   27
                                                                 
     6S4     31   32   39   40   36   35
                                                                 
     6s_d    29   30   38   37   34   33
                                                                 

     Band symmetry, O_h (m-3m)  point group:

     e(  1 -  1) =      3.14794  eV     1   --> A_1g G_1   G_1+
     e(  2 -  4) =      7.64606  eV     3   --> A_1g G_1   G_1+
     e(  2 -  4) =      7.64606  eV     3   --> E_g  G_12  G_3+
     e(  5 -  7) =      8.10596  eV     3   --> T_2g G_25' G_5+
     e(  8 - 10) =      9.48915  eV     3   --> T_2g G_25' G_5+
     e( 11 - 12) =     10.30503  eV     2   --> E_g  G_12  G_3+
     e( 13 - 15) =     10.85048  eV     3   --> A_2g G_2   G_2+
     e( 13 - 15) =     10.85048  eV     3   --> E_g  G_12  G_3+
     e( 16 - 21) =     11.01034  eV     6   --> T_1g G_15' G_4+
     e( 16 - 21) =     11.01034  eV     6   --> T_2g G_25' G_5+
     e( 22 - 24) =     13.92810  eV     3   --> T_1u G_15  G_4-
     e( 25 - 26) =     19.47698  eV     2   -->   ?

 **************************************************************************

 **************************************************************************

                    xk=(   0.02500,   0.00000,   1.00000  )

     point group C_4v (4mm) 
     there are  5 classes
     the character table:

       E     2C4   C2    2s_v  2s_d 
A_1    1.00  1.00  1.00  1.00  1.00
A_2    1.00  1.00  1.00 -1.00 -1.00
B_1    1.00 -1.00  1.00  1.00 -1.00
B_2    1.00 -1.00  1.00 -1.00  1.00
E      2.00  0.00 -2.00  0.00  0.00

     the symmetry operations in each class and the name of the first element:

     E        1
                                                                 
     2C4      3    4
                                                                 
     C2       2
                                                                 
     2s_v     5    6
                                                                 
     2s_d     7    8
                                                                 

     Band symmetry, C_4v (4mm)  point group:

     e(  1 -  1) =      3.15548  eV     1   --> A_1  G_1 D_1   
     e(  2 -  2) =      7.64599  eV     1   --> A_1  G_1 D_1   
     e(  3 -  4) =      7.64964  eV     2   --> A_1  G_1 D_1   
     e(  3 -  4) =      7.64964  eV     2   --> B_1  G_3 D_2   
     e(  5 -  7) =      8.10798  eV     3   --> B_2  G_4 D_2'  
     e(  5 -  7) =      8.10798  eV     3   --> E    G_5 D_5   
     e(  8 -  8) =      9.48690  eV     1   --> B_2  G_4 D_2'  
     e(  9 - 10) =      9.49094  eV     2   --> E    G_5 D_5   
     e( 11 - 11) =     10.30298  eV     1   --> A_1  G_1 D_1   
     e( 12 - 12) =     10.30585  eV     1   --> B_1  G_3 D_2   
     e( 13 - 14) =     10.84785  eV     2   --> A_1  G_1 D_1   
     e( 13 - 14) =     10.84785  eV     2   --> B_1  G_3 D_2   
     e( 15 - 15) =     10.84963  eV     1   --> B_1  G_3 D_2   
     e( 16 - 17) =     10.99591  eV     2   --> E    G_5 D_5   
     e( 18 - 19) =     11.00721  eV     2   --> E    G_5 D_5   
     e( 20 - 21) =     11.01035  eV     2   --> A_2  G_2 D_1'  
     e( 20 - 21) =     11.01035  eV     2   --> B_2  G_4 D_2'  
     e( 22 - 22) =     13.87629  eV     1   --> A_1  G_1 D_1   
     e( 23 - 24) =     13.94928  eV     2   --> E    G_5 D_5   
     e( 25 - 26) =     19.47973  eV     2   --> A_1  G_1 D_1   
     e( 25 - 26) =     19.47973  eV     2   --> B_1  G_3 D_2   

 **************************************************************************

 **************************************************************************

                    xk=(   0.05000,   0.00000,   1.00000  )

     Band symmetry, C_4v (4mm)  point group:

     e(  1 -  1) =      3.17810  eV     1   --> A_1  G_1 D_1   
     e(  2 -  2) =      7.64561  eV     1   --> A_1  G_1 D_1   
     e(  3 -  4) =      7.66030  eV     2   --> A_1  G_1 D_1   
     e(  3 -  4) =      7.66030  eV     2   --> B_1  G_3 D_2   
     e(  5 -  5) =      8.11402  eV     1   --> B_2  G_4 D_2'  
     e(  6 -  7) =      8.11436  eV     2   --> E    G_5 D_5   
     e(  8 -  8) =      9.48016  eV     1   --> B_2  G_4 D_2'  
     e(  9 - 10) =      9.49630  eV     2   --> E    G_5 D_5   
     e( 11 - 11) =     10.29687  eV     1   --> A_1  G_1 D_1   
     e( 12 - 12) =     10.30831  eV     1   --> B_1  G_3 D_2   
     e( 13 - 14) =     10.83995  eV     2   --> A_1  G_1 D_1   
     e( 13 - 14) =     10.83995  eV     2   --> B_1  G_3 D_2   
     e( 15 - 15) =     10.84706  eV     1   --> B_1  G_3 D_2   
     e( 16 - 17) =     10.95382  eV     2   --> E    G_5 D_5   
     e( 18 - 19) =     10.99785  eV     2   --> E    G_5 D_5   
     e( 20 - 21) =     11.01036  eV     2   --> A_2  G_2 D_1'  
     e( 20 - 21) =     11.01036  eV     2   --> B_2  G_4 D_2'  
     e( 22 - 22) =     13.72820  eV     1   --> A_1  G_1 D_1   
     e( 23 - 24) =     14.01159  eV     2   --> E    G_5 D_5   
     e( 25 - 26) =     19.48803  eV     2   --> A_1  G_1 D_1   
     e( 25 - 26) =     19.48803  eV     2   --> B_1  G_3 D_2   

 **************************************************************************

 **************************************************************************

                    xk=(   0.07500,   0.00000,   1.00000  )

     Band symmetry, C_4v (4mm)  point group:

     e(  1 -  1) =      3.21575  eV     1   --> A_1  G_1 D_1   
     e(  2 -  2) =      7.64454  eV     1   --> A_1  G_1 D_1   
     e(  3 -  4) =      7.67793  eV     2   --> A_1  G_1 D_1   
     e(  3 -  4) =      7.67793  eV     2   --> B_1  G_3 D_2   
     e(  5 -  5) =      8.12406  eV     1   --> B_2  G_4 D_2'  
     e(  6 -  7) =      8.12489  eV     2   --> E    G_5 D_5   
     e(  8 -  8) =      9.46899  eV     1   --> B_2  G_4 D_2'  
     e(  9 - 10) =      9.50523  eV     2   --> E    G_5 D_5   
     e( 11 - 11) =     10.28676  eV     1   --> A_1  G_1 D_1   
     e( 12 - 12) =     10.31240  eV     1   --> B_1  G_3 D_2   
     e( 13 - 14) =     10.82685  eV     2   --> A_1  G_1 D_1   
     e( 13 - 14) =     10.82685  eV     2   --> B_1  G_3 D_2   
     e( 15 - 15) =     10.84279  eV     1   --> B_1  G_3 D_2   
     e( 16 - 17) =     10.88742  eV     2   --> E    G_5 D_5   
     e( 18 - 19) =     10.98237  eV     2   --> E    G_5 D_5   
     e( 20 - 21) =     11.01038  eV     2   --> A_2  G_2 D_1'  
     e( 20 - 21) =     11.01038  eV     2   --> B_2  G_4 D_2'  
     e( 22 - 22) =     13.50214  eV     1   --> A_1  G_1 D_1   
     e( 23 - 24) =     14.11168  eV     2   --> E    G_5 D_5   
     e( 25 - 26) =     19.50193  eV     2   --> A_1  G_1 D_1   
     e( 25 - 26) =     19.50193  eV     2   --> B_1  G_3 D_2   

 **************************************************************************

 **************************************************************************

                    xk=(   0.10000,   0.00000,   1.00000  )

     Band symmetry, C_4v (4mm)  point group:

     e(  1 -  1) =      3.26836  eV     1   --> A_1  G_1 D_1   
     e(  2 -  2) =      7.64212  eV     1   --> A_1  G_1 D_1   
     e(  3 -  4) =      7.70230  eV     2   --> A_1  G_1 D_1   
     e(  3 -  4) =      7.70230  eV     2   --> B_1  G_3 D_2   
     e(  5 -  5) =      8.13804  eV     1   --> B_2  G_4 D_2'  
     e(  6 -  7) =      8.13965  eV     2   --> E    G_5 D_5   
     e(  8 -  8) =      9.45344  eV     1   --> B_2  G_4 D_2'  
     e(  9 - 10) =      9.51769  eV     2   --> E    G_5 D_5   
     e( 11 - 11) =     10.27274  eV     1   --> A_1  G_1 D_1   
     e( 12 - 12) =     10.31808  eV     1   --> B_1  G_3 D_2   
     e( 13 - 14) =     10.80119  eV     2   --> E    G_5 D_5   
     e( 15 - 16) =     10.80866  eV     2   --> A_1  G_1 D_1   
     e( 15 - 16) =     10.80866  eV     2   --> B_1  G_3 D_2   
     e( 17 - 17) =     10.83685  eV     1   --> B_1  G_3 D_2   
     e( 18 - 19) =     10.96098  eV     2   --> E    G_5 D_5   
     e( 20 - 21) =     11.01042  eV     2   --> A_2  G_2 D_1'  
     e( 20 - 21) =     11.01042  eV     2   --> B_2  G_4 D_2'  
     e( 22 - 22) =     13.21996  eV     1   --> A_1  G_1 D_1   
     e( 23 - 24) =     14.24506  eV     2   --> E    G_5 D_5   
     e( 25 - 26) =     19.52157  eV     2   --> A_1  G_1 D_1   
     e( 25 - 26) =     19.52157  eV     2   --> B_1  G_3 D_2   

 **************************************************************************

 **************************************************************************

                    xk=(   0.12500,   0.00000,   1.00000  )

     Band symmetry, C_4v (4mm)  point group:

     e(  1 -  1) =      3.33583  eV     1   --> A_1  G_1 D_1   
     e(  2 -  2) =      7.63737  eV     1   --> A_1  G_1 D_1   
     e(  3 -  4) =      7.73310  eV     2   --> A_1  G_1 D_1   
     e(  3 -  4) =      7.73310  eV     2   --> B_1  G_3 D_2   
     e(  5 -  5) =      8.15590  eV     1   --> B_2  G_4 D_2'  
     e(  6 -  7) =      8.15866  eV     2   --> E    G_5 D_5   
     e(  8 -  8) =      9.43366  eV     1   --> B_2  G_4 D_2'  
     e(  9 - 10) =      9.53368  eV     2   --> E    G_5 D_5   
     e( 11 - 11) =     10.25497  eV     1   --> A_1  G_1 D_1   
     e( 12 - 12) =     10.32534  eV     1   --> B_1  G_3 D_2   
     e( 13 - 14) =     10.69981  eV     2   --> E    G_5 D_5   
     e( 15 - 16) =     10.78552  eV     2   --> A_1  G_1 D_1   
     e( 15 - 16) =     10.78552  eV     2   --> B_1  G_3 D_2   
     e( 17 - 17) =     10.82929  eV     1   --> B_1  G_3 D_2   
     e( 18 - 19) =     10.93396  eV     2   --> E    G_5 D_5   
     e( 20 - 21) =     11.01046  eV     2   --> A_2  G_2 D_1'  
     e( 20 - 21) =     11.01046  eV     2   --> B_2  G_4 D_2'  
     e( 22 - 22) =     12.90169  eV     1   --> A_1  G_1 D_1   
     e( 23 - 24) =     14.40699  eV     2   --> E    G_5 D_5   
     e( 25 - 26) =     19.54710  eV     2   --> A_1  G_1 D_1   
     e( 25 - 26) =     19.54710  eV     2   --> B_1  G_3 D_2   

 **************************************************************************

 **************************************************************************

                    xk=(   0.15000,   0.00000,   1.00000  )

     Band symmetry, C_4v (4mm)  point group:

     e(  1 -  1) =      3.41804  eV     1   --> A_1  G_1 D_1   
     e(  2 -  2) =      7.62894  eV     1   --> A_1  G_1 D_1   
     e(  3 -  4) =      7.76991  eV     2   --> A_1  G_1 D_1   
     e(  3 -  4) =      7.76991  eV     2   --> B_1  G_3 D_2   
     e(  5 -  5) =      8.17753  eV     1   --> B_2  G_4 D_2'  
     e(  6 -  7) =      8.18195  eV     2   --> E    G_5 D_5   
     e(  8 -  8) =      9.40978  eV     1   --> B_2  G_4 D_2'  
     e(  9 - 10) =      9.55316  eV     2   --> E    G_5 D_5   
     e( 11 - 11) =     10.23363  eV     1   --> A_1  G_1 D_1   
     e( 12 - 12) =     10.33413  eV     1   --> B_1  G_3 D_2   
     e( 13 - 14) =     10.58757  eV     2   --> E    G_5 D_5   
     e( 15 - 16) =     10.75767  eV     2   --> A_1  G_1 D_1   
     e( 15 - 16) =     10.75767  eV     2   --> B_1  G_3 D_2   
     e( 17 - 17) =     10.82014  eV     1   --> B_1  G_3 D_2   
     e( 18 - 19) =     10.90161  eV     2   --> E    G_5 D_5   
     e( 20 - 21) =     11.01050  eV     2   --> A_2  G_2 D_1'  
     e( 20 - 21) =     11.01050  eV     2   --> B_2  G_4 D_2'  
     e( 22 - 22) =     12.56355  eV     1   --> A_1  G_1 D_1   
     e( 23 - 24) =     14.59318  eV     2   --> E    G_5 D_5   
     e( 25 - 26) =     19.57875  eV     2   --> A_1  G_1 D_1   
     e( 25 - 26) =     19.57875  eV     2   --> B_1  G_3 D_2   

 **************************************************************************

 **************************************************************************

                    xk=(   0.17500,   0.00000,   1.00000  )

     Band symmetry, C_4v (4mm)  point group:

     e(  1 -  1) =      3.51481  eV     1   --> A_1  G_1 D_1   
     e(  2 -  2) =      7.61502  eV     1   --> A_1  G_1 D_1   
     e(  3 -  4) =      7.81224  eV     2   --> A_1  G_1 D_1   
     e(  3 -  4) =      7.81224  eV     2   --> B_1  G_3 D_2   
     e(  5 -  5) =      8.20280  eV     1   --> B_2  G_4 D_2'  
     e(  6 -  7) =      8.20956  eV     2   --> E    G_5 D_5   
     e(  8 -  8) =      9.38196  eV     1   --> B_2  G_4 D_2'  
     e(  9 - 10) =      9.57608  eV     2   --> E    G_5 D_5   
     e( 11 - 11) =     10.20896  eV     1   --> A_1  G_1 D_1   
     e( 12 - 12) =     10.34440  eV     1   --> B_1  G_3 D_2   
     e( 13 - 14) =     10.46803  eV     2   --> E    G_5 D_5   
     e( 15 - 16) =     10.72536  eV     2   --> A_1  G_1 D_1   
     e( 15 - 16) =     10.72536  eV     2   --> B_1  G_3 D_2   
     e( 17 - 17) =     10.80947  eV     1   --> B_1  G_3 D_2   
     e( 18 - 19) =     10.86431  eV     2   --> E    G_5 D_5   
     e( 20 - 21) =     11.01055  eV     2   --> A_2  G_2 D_1'  
     e( 20 - 21) =     11.01055  eV     2   --> B_2  G_4 D_2'  
     e( 22 - 22) =     12.21821  eV     1   --> A_1  G_1 D_1   
     e( 23 - 24) =     14.79998  eV     2   --> E    G_5 D_5   
     e( 25 - 26) =     19.61678  eV     2   --> A_1  G_1 D_1   
     e( 25 - 26) =     19.61678  eV     2   --> B_1  G_3 D_2   

 **************************************************************************

 **************************************************************************

                    xk=(   0.20000,   0.00000,   1.00000  )

     Band symmetry, C_4v (4mm)  point group:

     e(  1 -  1) =      3.62593  eV     1   --> A_1  G_1 D_1   
     e(  2 -  2) =      7.59335  eV     1   --> A_1  G_1 D_1   
     e(  3 -  4) =      7.85943  eV     2   --> A_1  G_1 D_1   
     e(  3 -  4) =      7.85943  eV     2   --> B_1  G_3 D_2   
     e(  5 -  5) =      8.23162  eV     1   --> B_2  G_4 D_2'  
     e(  6 -  7) =      8.24153  eV     2   --> E    G_5 D_5   
     e(  8 -  8) =      9.35040  eV     1   --> B_2  G_4 D_2'  
     e(  9 - 10) =      9.60238  eV     2   --> E    G_5 D_5   
     e( 11 - 11) =     10.18127  eV     1   --> A_1  G_1 D_1   
     e( 12 - 13) =     10.34410  eV     2   --> E    G_5 D_5   
     e( 14 - 14) =     10.35608  eV     1   --> B_1  G_3 D_2   
     e( 15 - 16) =     10.68900  eV     2   --> A_1  G_1 D_1   
     e( 15 - 16) =     10.68900  eV     2   --> B_1  G_3 D_2   
     e( 17 - 17) =     10.79735  eV     1   --> B_1  G_3 D_2   
     e( 18 - 19) =     10.82253  eV     2   --> E    G_5 D_5   
     e( 20 - 21) =     11.01060  eV     2   --> A_2  G_2 D_1'  
     e( 20 - 21) =     11.01060  eV     2   --> B_2  G_4 D_2'  
     e( 22 - 22) =     11.87570  eV     1   --> A_1  G_1 D_1   
     e( 23 - 24) =     15.02446  eV     2   --> E    G_5 D_5   
     e( 25 - 26) =     19.66147  eV     2   --> A_1  G_1 D_1   
     e( 25 - 26) =     19.66147  eV     2   --> B_1  G_3 D_2   

 **************************************************************************

 **************************************************************************

                    xk=(   0.22500,   0.00000,   1.00000  )

     Band symmetry, C_4v (4mm)  point group:

     e(  1 -  1) =      3.75116  eV     1   --> A_1  G_1 D_1   
     e(  2 -  2) =      7.56111  eV     1   --> A_1  G_1 D_1   
     e(  3 -  4) =      7.91075  eV     2   --> A_1  G_1 D_1   
     e(  3 -  4) =      7.91075  eV     2   --> B_1  G_3 D_2   
     e(  5 -  5) =      8.26382  eV     1   --> B_2  G_4 D_2'  
     e(  6 -  7) =      8.27792  eV     2   --> E    G_5 D_5   
     e(  8 -  8) =      9.31532  eV     1   --> B_2  G_4 D_2'  
     e(  9 - 10) =      9.63201  eV     2   --> E    G_5 D_5   
     e( 11 - 11) =     10.15089  eV     1   --> A_1  G_1 D_1   
     e( 12 - 13) =     10.21801  eV     2   --> E    G_5 D_5   
     e( 14 - 14) =     10.36911  eV     1   --> B_1  G_3 D_2   
     e( 15 - 16) =     10.64908  eV     2   --> A_1  G_1 D_1   
     e( 15 - 16) =     10.64908  eV     2   --> B_1  G_3 D_2   
     e( 17 - 18) =     10.77671  eV     2   --> E    G_5 D_5   
     e( 19 - 19) =     10.78386  eV     1   --> B_1  G_3 D_2   
     e( 20 - 21) =     11.01068  eV     2   --> A_2  G_2 D_1'  
     e( 20 - 21) =     11.01068  eV     2   --> B_2  G_4 D_2'  
     e( 22 - 22) =     11.54431  eV     1   --> A_1  G_1 D_1   
     e( 23 - 24) =     15.26434  eV     2   --> E    G_5 D_5   
     e( 25 - 26) =     19.71317  eV     2   --> A_1  G_1 D_1   
     e( 25 - 26) =     19.71317  eV     2   --> B_1  G_3 D_2   

 **************************************************************************

 **************************************************************************

                    xk=(   0.25000,   0.00000,   1.00000  )

     Band symmetry, C_4v (4mm)  point group:

     e(  1 -  1) =      3.89017  eV     1   --> A_1  G_1 D_1   
     e(  2 -  2) =      7.51493  eV     1   --> A_1  G_1 D_1   
     e(  3 -  4) =      7.96529  eV     2   --> A_1  G_1 D_1   
     e(  3 -  4) =      7.96529  eV     2   --> B_1  G_3 D_2   
     e(  5 -  5) =      8.29922  eV     1   --> B_2  G_4 D_2'  
     e(  6 -  7) =      8.31875  eV     2   --> E    G_5 D_5   
     e(  8 -  8) =      9.27696  eV     1   --> B_2  G_4 D_2'  
     e(  9 - 10) =      9.66490  eV     2   --> E    G_5 D_5   
     e( 11 - 12) =     10.09148  eV     2   --> E    G_5 D_5   
     e( 13 - 13) =     10.11831  eV     1   --> A_1  G_1 D_1   
     e( 14 - 14) =     10.38341  eV     1   --> B_1  G_3 D_2   
     e( 15 - 16) =     10.60618  eV     2   --> A_1  G_1 D_1   
     e( 15 - 16) =     10.60618  eV     2   --> B_1  G_3 D_2   
     e( 17 - 18) =     10.72735  eV     2   --> E    G_5 D_5   
     e( 19 - 19) =     10.76910  eV     1   --> B_1  G_3 D_2   
     e( 20 - 21) =     11.01074  eV     2   --> A_2  G_2 D_1'  
     e( 20 - 21) =     11.01074  eV     2   --> B_2  G_4 D_2'  
     e( 22 - 22) =     11.23126  eV     1   --> A_1  G_1 D_1   
     e( 23 - 24) =     15.51783  eV     2   --> E    G_5 D_5   
     e( 25 - 26) =     19.77224  eV     2   --> A_1  G_1 D_1   
     e( 25 - 26) =     19.77224  eV     2   --> B_1  G_3 D_2   

 **************************************************************************

 **************************************************************************

                    xk=(   0.27500,   0.00000,   1.00000  )

     Band symmetry, C_4v (4mm)  point group:

     e(  1 -  1) =      4.04260  eV     1   --> A_1  G_1 D_1   
     e(  2 -  2) =      7.45112  eV     1   --> A_1  G_1 D_1   
     e(  3 -  4) =      8.02203  eV     2   --> A_1  G_1 D_1   
     e(  3 -  4) =      8.02203  eV     2   --> B_1  G_3 D_2   
     e(  5 -  5) =      8.33762  eV     1   --> B_2  G_4 D_2'  
     e(  6 -  7) =      8.36409  eV     2   --> E    G_5 D_5   
     e(  8 -  8) =      9.23559  eV     1   --> B_2  G_4 D_2'  
     e(  9 - 10) =      9.70090  eV     2   --> E    G_5 D_5   
     e( 11 - 12) =      9.96582  eV     2   --> E    G_5 D_5   
     e( 13 - 13) =     10.08395  eV     1   --> A_1  G_1 D_1   
     e( 14 - 14) =     10.39889  eV     1   --> B_1  G_3 D_2   
     e( 15 - 16) =     10.56106  eV     2   --> A_1  G_1 D_1   
     e( 15 - 16) =     10.56106  eV     2   --> B_1  G_3 D_2   
     e( 17 - 18) =     10.67491  eV     2   --> E    G_5 D_5   
     e( 19 - 19) =     10.75313  eV     1   --> B_1  G_3 D_2   
     e( 20 - 20) =     10.94301  eV     1   --> A_1  G_1 D_1   
     e( 21 - 22) =     11.01080  eV     2   --> A_2  G_2 D_1'  
     e( 21 - 22) =     11.01080  eV     2   --> B_2  G_4 D_2'  
     e( 23 - 24) =     15.78352  eV     2   --> E    G_5 D_5   
     e( 25 - 26) =     19.83907  eV     2   --> A_1  G_1 D_1   
     e( 25 - 26) =     19.83907  eV     2   --> B_1  G_3 D_2   

 **************************************************************************

 **************************************************************************

                    xk=(   0.30000,   0.00000,   1.00000  )

     Band symmetry, C_4v (4mm)  point group:

     e(  1 -  1) =      4.20797  eV     1   --> A_1  G_1 D_1   
     e(  2 -  2) =      7.36595  eV     1   --> A_1  G_1 D_1   
     e(  3 -  4) =      8.07973  eV     2   --> A_1  G_1 D_1   
     e(  3 -  4) =      8.07973  eV     2   --> B_1  G_3 D_2   
     e(  5 -  5) =      8.37883  eV     1   --> B_2  G_4 D_2'  
     e(  6 -  7) =      8.41397  eV     2   --> E    G_5 D_5   
     e(  8 -  8) =      9.19150  eV     1   --> B_2  G_4 D_2'  
     e(  9 - 10) =      9.73999  eV     2   --> E    G_5 D_5   
     e( 11 - 12) =      9.84203  eV     2   --> E    G_5 D_5   
     e( 13 - 13) =     10.04846  eV     1   --> A_1  G_1 D_1   
     e( 14 - 14) =     10.41548  eV     1   --> B_1  G_3 D_2   
     e( 15 - 16) =     10.51465  eV     2   --> A_1  G_1 D_1   
     e( 15 - 16) =     10.51465  eV     2   --> B_1  G_3 D_2   
     e( 17 - 18) =     10.61991  eV     2   --> E    G_5 D_5   
     e( 19 - 19) =     10.68524  eV     1   --> A_1  G_1 D_1   
     e( 20 - 20) =     10.73608  eV     1   --> B_1  G_3 D_2   
     e( 21 - 22) =     11.01085  eV     2   --> A_2  G_2 D_1'  
     e( 21 - 22) =     11.01085  eV     2   --> B_2  G_4 D_2'  
     e( 23 - 24) =     16.06035  eV     2   --> E    G_5 D_5   
     e( 25 - 26) =     19.91403  eV     2   --> A_1  G_1 D_1   
     e( 25 - 26) =     19.91403  eV     2   --> B_1  G_3 D_2   

 **************************************************************************

 **************************************************************************

                    xk=(   0.32500,   0.00000,   1.00000  )

     Band symmetry, C_4v (4mm)  point group:

     e(  1 -  1) =      4.38575  eV     1   --> A_1  G_1 D_1   
     e(  2 -  2) =      7.25636  eV     1   --> A_1  G_1 D_1   
     e(  3 -  4) =      8.13703  eV     2   --> A_1  G_1 D_1   
     e(  3 -  4) =      8.13703  eV     2   --> B_1  G_3 D_2   
     e(  5 -  5) =      8.42262  eV     1   --> B_2  G_4 D_2'  
     e(  6 -  7) =      8.46844  eV     2   --> E    G_5 D_5   
     e(  8 -  8) =      9.14498  eV     1   --> B_2  G_4 D_2'  
     e(  9 - 10) =      9.72089  eV     2   --> E    G_5 D_5   
     e( 11 - 12) =      9.78202  eV     2   --> E    G_5 D_5   
     e( 13 - 13) =     10.01254  eV     1   --> A_1  G_1 D_1   
     e( 14 - 14) =     10.43307  eV     1   --> B_1  G_3 D_2   
     e( 15 - 15) =     10.46240  eV     1   --> A_1  G_1 D_1   
     e( 16 - 17) =     10.46806  eV     2   --> A_1  G_1 D_1   
     e( 16 - 17) =     10.46806  eV     2   --> B_1  G_3 D_2   
     e( 18 - 19) =     10.56285  eV     2   --> E    G_5 D_5   
     e( 20 - 20) =     10.71808  eV     1   --> B_1  G_3 D_2   
     e( 21 - 22) =     11.01090  eV     2   --> A_2  G_2 D_1'  
     e( 21 - 22) =     11.01090  eV     2   --> B_2  G_4 D_2'  
     e( 23 - 24) =     16.34744  eV     2   --> E    G_5 D_5   
     e( 25 - 26) =     19.99750  eV     2   --> A_1  G_1 D_1   
     e( 25 - 26) =     19.99750  eV     2   --> B_1  G_3 D_2   

 **************************************************************************

 **************************************************************************

                    xk=(   0.35000,   0.00000,   1.00000  )

     Band symmetry, C_4v (4mm)  point group:

     e(  1 -  1) =      4.57524  eV     1   --> A_1  G_1 D_1   
     e(  2 -  2) =      7.12071  eV     1   --> A_1  G_1 D_1   
     e(  3 -  4) =      8.19234  eV     2   --> A_1  G_1 D_1   
     e(  3 -  4) =      8.19234  eV     2   --> B_1  G_3 D_2   
     e(  5 -  5) =      8.46872  eV     1   --> B_2  G_4 D_2'  
     e(  6 -  7) =      8.52757  eV     2   --> E    G_5 D_5   
     e(  8 -  8) =      9.09634  eV     1   --> B_2  G_4 D_2'  
     e(  9 - 10) =      9.60297  eV     2   --> E    G_5 D_5   
     e( 11 - 12) =      9.82685  eV     2   --> E    G_5 D_5   
     e( 13 - 13) =      9.97704  eV     1   --> A_1  G_1 D_1   
     e( 14 - 14) =     10.27716  eV     1   --> A_1  G_1 D_1   
     e( 15 - 16) =     10.42260  eV     2   --> A_1  G_1 D_1   
     e( 15 - 16) =     10.42260  eV     2   --> B_1  G_3 D_2   
     e( 17 - 17) =     10.45155  eV     1   --> B_1  G_3 D_2   
     e( 18 - 19) =     10.50424  eV     2   --> E    G_5 D_5   
     e( 20 - 20) =     10.69919  eV     1   --> B_1  G_3 D_2   
     e( 21 - 22) =     11.01095  eV     2   --> A_2  G_2 D_1'  
     e( 21 - 22) =     11.01095  eV     2   --> B_2  G_4 D_2'  
     e( 23 - 24) =     16.64413  eV     2   --> E    G_5 D_5   
     e( 25 - 26) =     20.08975  eV     2   --> A_1  G_1 D_1   
     e( 25 - 26) =     20.08975  eV     2   --> B_1  G_3 D_2   

 **************************************************************************

 **************************************************************************

                    xk=(   0.37500,   0.00000,   1.00000  )

     Band symmetry, C_4v (4mm)  point group:

     e(  1 -  1) =      4.77560  eV     1   --> A_1  G_1 D_1   
     e(  2 -  2) =      6.95932  eV     1   --> A_1  G_1 D_1   
     e(  3 -  4) =      8.24391  eV     2   --> A_1  G_1 D_1   
     e(  3 -  4) =      8.24391  eV     2   --> B_1  G_3 D_2   
     e(  5 -  5) =      8.51689  eV     1   --> B_2  G_4 D_2'  
     e(  6 -  7) =      8.59137  eV     2   --> E    G_5 D_5   
     e(  8 -  8) =      9.04592  eV     1   --> B_2  G_4 D_2'  
     e(  9 - 10) =      9.48872  eV     2   --> E    G_5 D_5   
     e( 11 - 12) =      9.87433  eV     2   --> E    G_5 D_5   
     e( 13 - 13) =      9.94297  eV     1   --> A_1  G_1 D_1   
     e( 14 - 14) =     10.12985  eV     1   --> A_1  G_1 D_1   
     e( 15 - 16) =     10.37980  eV     2   --> A_1  G_1 D_1   
     e( 15 - 16) =     10.37980  eV     2   --> B_1  G_3 D_2   
     e( 17 - 18) =     10.44451  eV     2   --> E    G_5 D_5   
     e( 19 - 19) =     10.47082  eV     1   --> B_1  G_3 D_2   
     e( 20 - 20) =     10.67954  eV     1   --> B_1  G_3 D_2   
     e( 21 - 22) =     11.01100  eV     2   --> A_2  G_2 D_1'  
     e( 21 - 22) =     11.01100  eV     2   --> B_2  G_4 D_2'  
     e( 23 - 24) =     16.94986  eV     2   --> E    G_5 D_5   
     e( 25 - 26) =     20.19092  eV     2   --> A_1  G_1 D_1   
     e( 25 - 26) =     20.19092  eV     2   --> B_1  G_3 D_2   

 **************************************************************************

 **************************************************************************

                    xk=(   0.40000,   0.00000,   1.00000  )

     Band symmetry, C_4v (4mm)  point group:

     e(  1 -  1) =      4.98580  eV     1   --> A_1  G_1 D_1   
     e(  2 -  2) =      6.77469  eV     1   --> A_1  G_1 D_1   
     e(  3 -  4) =      8.28987  eV     2   --> A_1  G_1 D_1   
     e(  3 -  4) =      8.28987  eV     2   --> B_1  G_3 D_2   
     e(  5 -  5) =      8.56685  eV     1   --> B_2  G_4 D_2'  
     e(  6 -  7) =      8.65991  eV     2   --> E    G_5 D_5   
     e(  8 -  8) =      8.99400  eV     1   --> B_2  G_4 D_2'  
     e(  9 - 10) =      9.37848  eV     2   --> E    G_5 D_5   
     e( 11 - 11) =      9.91152  eV     1   --> A_1  G_1 D_1   
     e( 12 - 13) =      9.92426  eV     2   --> E    G_5 D_5   
     e( 14 - 14) =     10.01847  eV     1   --> A_1  G_1 D_1   
     e( 15 - 16) =     10.34133  eV     2   --> A_1  G_1 D_1   
     e( 15 - 16) =     10.34133  eV     2   --> B_1  G_3 D_2   
     e( 17 - 18) =     10.38415  eV     2   --> E    G_5 D_5   
     e( 19 - 19) =     10.49075  eV     1   --> B_1  G_3 D_2   
     e( 20 - 20) =     10.65929  eV     1   --> B_1  G_3 D_2   
     e( 21 - 22) =     11.01104  eV     2   --> A_2  G_2 D_1'  
     e( 21 - 22) =     11.01104  eV     2   --> B_2  G_4 D_2'  
     e( 23 - 24) =     17.26417  eV     2   --> E    G_5 D_5   
     e( 25 - 26) =     20.04954  eV     2   --> E    G_5 D_5   

 **************************************************************************

 **************************************************************************

                    xk=(   0.42500,   0.00000,   1.00000  )

     Band symmetry, C_4v (4mm)  point group:

     e(  1 -  1) =      5.20454  eV     1   --> A_1  G_1 D_1   
     e(  2 -  2) =      6.57091  eV     1   --> A_1  G_1 D_1   
     e(  3 -  4) =      8.32828  eV     2   --> A_1  G_1 D_1   
     e(  3 -  4) =      8.32828  eV     2   --> B_1  G_3 D_2   
     e(  5 -  5) =      8.61830  eV     1   --> B_2  G_4 D_2'  
     e(  6 -  7) =      8.73319  eV     2   --> E    G_5 D_5   
     e(  8 -  8) =      8.94099  eV     1   --> B_2  G_4 D_2'  
     e(  9 - 10) =      9.27248  eV     2   --> E    G_5 D_5   
     e( 11 - 11) =      9.88417  eV     1   --> A_1  G_1 D_1   
     e( 12 - 12) =      9.93923  eV     1   --> A_1  G_1 D_1   
     e( 13 - 14) =      9.97648  eV     2   --> E    G_5 D_5   
     e( 15 - 16) =     10.30892  eV     2   --> A_1  G_1 D_1   
     e( 15 - 16) =     10.30892  eV     2   --> B_1  G_3 D_2   
     e( 17 - 18) =     10.32355  eV     2   --> E    G_5 D_5   
     e( 19 - 19) =     10.51123  eV     1   --> B_1  G_3 D_2   
     e( 20 - 20) =     10.63856  eV     1   --> B_1  G_3 D_2   
     e( 21 - 22) =     11.01107  eV     2   --> A_2  G_2 D_1'  
     e( 21 - 22) =     11.01107  eV     2   --> B_2  G_4 D_2'  
     e( 23 - 24) =     17.58668  eV     2   --> E    G_5 D_5   
     e( 25 - 26) =     19.67757  eV     2   --> E    G_5 D_5   

 **************************************************************************

 **************************************************************************

                    xk=(   0.45000,   0.00000,   1.00000  )

     Band symmetry, C_4v (4mm)  point group:

     e(  1 -  1) =      5.43019  eV     1   --> A_1  G_1 D_1   
     e(  2 -  2) =      6.35289  eV     1   --> A_1  G_1 D_1   
     e(  3 -  4) =      8.35732  eV     2   --> A_1  G_1 D_1   
     e(  3 -  4) =      8.35732  eV     2   --> B_1  G_3 D_2   
     e(  5 -  5) =      8.67096  eV     1   --> B_2  G_4 D_2'  
     e(  6 -  7) =      8.81124  eV     2   --> E    G_5 D_5   
     e(  8 -  8) =      8.88720  eV     1   --> B_2  G_4 D_2'  
     e(  9 - 10) =      9.17093  eV     2   --> E    G_5 D_5   
     e( 11 - 11) =      9.86268  eV     1   --> A_1  G_1 D_1   
     e( 12 - 12) =      9.88739  eV     1   --> A_1  G_1 D_1   
     e( 13 - 14) =     10.03076  eV     2   --> E    G_5 D_5   
     e( 15 - 16) =     10.26319  eV     2   --> E    G_5 D_5   
     e( 17 - 18) =     10.28427  eV     2   --> A_1  G_1 D_1   
     e( 17 - 18) =     10.28427  eV     2   --> B_1  G_3 D_2   
     e( 19 - 19) =     10.53214  eV     1   --> B_1  G_3 D_2   
     e( 20 - 20) =     10.61747  eV     1   --> B_1  G_3 D_2   
     e( 21 - 22) =     11.01110  eV     2   --> A_2  G_2 D_1'  
     e( 21 - 22) =     11.01110  eV     2   --> B_2  G_4 D_2'  
     e( 23 - 24) =     17.91707  eV     2   --> E    G_5 D_5   
     e( 25 - 26) =     19.31186  eV     2   --> E    G_5 D_5   

 **************************************************************************

 **************************************************************************

                    xk=(   0.47500,   0.00000,   1.00000  )

     Band symmetry, C_4v (4mm)  point group:

     e(  1 -  1) =      5.66074  eV     1   --> A_1  G_1 D_1   
     e(  2 -  2) =      6.12561  eV     1   --> A_1  G_1 D_1   
     e(  3 -  4) =      8.37544  eV     2   --> A_1  G_1 D_1   
     e(  3 -  4) =      8.37544  eV     2   --> B_1  G_3 D_2   
     e(  5 -  5) =      8.72451  eV     1   --> B_2  G_4 D_2'  
     e(  6 -  6) =      8.83296  eV     1   --> B_2  G_4 D_2'  
     e(  7 -  8) =      8.89406  eV     2   --> E    G_5 D_5   
     e(  9 - 10) =      9.07394  eV     2   --> E    G_5 D_5   
     e( 11 - 11) =      9.84928  eV     1   --> A_1  G_1 D_1   
     e( 12 - 12) =      9.85803  eV     1   --> A_1  G_1 D_1   
     e( 13 - 14) =     10.08686  eV     2   --> E    G_5 D_5   
     e( 15 - 16) =     10.20338  eV     2   --> E    G_5 D_5   
     e( 17 - 18) =     10.26883  eV     2   --> A_1  G_1 D_1   
     e( 17 - 18) =     10.26883  eV     2   --> B_1  G_3 D_2   
     e( 19 - 19) =     10.55335  eV     1   --> B_1  G_3 D_2   
     e( 20 - 20) =     10.59615  eV     1   --> B_1  G_3 D_2   
     e( 21 - 22) =     11.01111  eV     2   --> A_2  G_2 D_1'  
     e( 21 - 22) =     11.01111  eV     2   --> B_2  G_4 D_2'  
     e( 23 - 24) =     18.25505  eV     2   --> E    G_5 D_5   
     e( 25 - 26) =     18.95270  eV     2   --> E    G_5 D_5   

 **************************************************************************

 **************************************************************************

                    xk=(   0.50000,   0.00000,   1.00000  )

     point group D_4h(4/mmm)
     there are 10 classes
     the character table:

       E     2C4   C2    2C2'  2C2'' i     2S4   s_h   2s_v  2s_d 
A_1g   1.00  1.00  1.00  1.00  1.00  1.00  1.00  1.00  1.00  1.00
A_2g   1.00  1.00  1.00 -1.00 -1.00  1.00  1.00  1.00 -1.00 -1.00
B_1g   1.00 -1.00  1.00  1.00 -1.00  1.00 -1.00  1.00  1.00 -1.00
B_2g   1.00 -1.00  1.00 -1.00  1.00  1.00 -1.00  1.00 -1.00  1.00
E_g    2.00  0.00 -2.00  0.00  0.00  2.00  0.00 -2.00  0.00  0.00
A_1u   1.00  1.00  1.00  1.00  1.00 -1.00 -1.00 -1.00 -1.00 -1.00
A_2u   1.00  1.00  1.00 -1.00 -1.00 -1.00 -1.00 -1.00  1.00  1.00
B_1u   1.00 -1.00  1.00  1.00 -1.00 -1.00  1.00 -1.00 -1.00  1.00
B_2u   1.00 -1.00  1.00 -1.00  1.00 -1.00  1.00 -1.00  1.00 -1.00
E_u    2.00  0.00 -2.00  0.00  0.00 -2.00  0.00  2.00  0.00  0.00

     the symmetry operations in each class and the name of the first element:

     E        1
                                                                 
     2C4      7    8
                                                                 
     C2       4
                                                                 
     2C2'     2    3
                                                                 
     2C2''    5    6
                                                                 
     i        9
                                                                 
     2S4     15   16
                                                                 
     s_h     12
                                                                 
     2s_v    10   11
                                                                 
     2s_d    13   14
                                                                 

     Band symmetry, D_4h(4/mmm) point group:

     e(  1 -  2) =      5.89360  eV     2   --> A_1g X_1  M_1  
     e(  1 -  2) =      5.89360  eV     2   --> A_2u X_4' M_4' 
     e(  3 -  4) =      8.38158  eV     2   --> B_1g X_2  M_2  
     e(  3 -  4) =      8.38158  eV     2   --> A_2u X_4' M_4' 
     e(  5 -  6) =      8.77861  eV     2   --> B_2g X_3  M_3  
     e(  5 -  6) =      8.77861  eV     2   --> B_1u X_2' M_2' 
     e(  7 - 10) =      8.98160  eV     4   --> E_g  X_5  M_5  
     e(  7 - 10) =      8.98160  eV     4   --> E_u  X_5' M_5' 
     e( 11 - 12) =      9.84663  eV     2   --> A_1g X_1  M_1  
     e( 11 - 12) =      9.84663  eV     2   --> A_2u X_4' M_4' 
     e( 13 - 16) =     10.14449  eV     4   --> E_g  X_5  M_5  
     e( 13 - 16) =     10.14449  eV     4   --> E_u  X_5' M_5' 
     e( 17 - 18) =     10.26354  eV     2   --> A_1g X_1  M_1  
     e( 17 - 18) =     10.26354  eV     2   --> B_2u X_3' M_3' 
     e( 19 - 20) =     10.57472  eV     2   --> B_1g X_2  M_2  
     e( 19 - 20) =     10.57472  eV     2   --> B_2u X_3' M_3' 
     e( 21 - 22) =     11.01109  eV     2   --> B_2g X_3  M_3  
     e( 21 - 22) =     11.01109  eV     2   --> A_1u X_1' M_1' 
     e( 23 - 26) =     18.60034  eV     4   --> E_g  X_5  M_5  
     e( 23 - 26) =     18.60034  eV     4   --> E_u  X_5' M_5' 

 **************************************************************************

 **************************************************************************

                    xk=(   0.51250,   0.03750,   0.95000  )

     point group C_1 (1)    
     there are  1 classes
     the character table:

       E    
A      1.00

     the symmetry operations in each class and the name of the first element:

     E        1
                                                                 

     Band symmetry, C_1 (1)     point group:

     e(  1 -  1) =      5.81599  eV     1   --> A              
     e(  2 -  2) =      6.04784  eV     1   --> A              
     e(  3 -  3) =      8.39700  eV     1   --> A              
     e(  4 -  4) =      8.39727  eV     1   --> A              
     e(  5 -  5) =      8.75726  eV     1   --> A              
     e(  6 -  6) =      8.81087  eV     1   --> A              
     e(  7 -  7) =      8.92219  eV     1   --> A              
     e(  8 -  8) =      8.92715  eV     1   --> A              
     e(  9 -  9) =      9.02028  eV     1   --> A              
     e( 10 - 10) =      9.02566  eV     1   --> A              
     e( 11 - 11) =      9.79095  eV     1   --> A              
     e( 12 - 12) =      9.79252  eV     1   --> A              
     e( 13 - 13) =     10.09732  eV     1   --> A              
     e( 14 - 14) =     10.15299  eV     1   --> A              
     e( 15 - 15) =     10.18131  eV     1   --> A              
     e( 16 - 16) =     10.24274  eV     1   --> A              
     e( 17 - 17) =     10.26457  eV     1   --> A              
     e( 18 - 18) =     10.26490  eV     1   --> A              
     e( 19 - 19) =     10.57598  eV     1   --> A              
     e( 20 - 20) =     10.59938  eV     1   --> A              
     e( 21 - 22) =     10.99048  eV     2   -->   2 A              
     e( 23 - 23) =     18.02627  eV     1   --> A              
     e( 24 - 24) =     18.18058  eV     1   --> A              
     e( 25 - 25) =     18.40352  eV     1   --> A              
     e( 26 - 26) =     18.56592  eV     1   --> A              

 **************************************************************************

 **************************************************************************

                    xk=(   0.52500,   0.07500,   0.90000  )

     Band symmetry, C_1 (1)     point group:

     e(  1 -  1) =      5.81631  eV     1   --> A              
     e(  2 -  2) =      6.27253  eV     1   --> A              
     e(  3 -  3) =      8.44149  eV     1   --> A              
     e(  4 -  4) =      8.44398  eV     1   --> A              
     e(  5 -  5) =      8.74963  eV     1   --> A              
     e(  6 -  6) =      8.82664  eV     1   --> A              
     e(  7 -  7) =      8.84084  eV     1   --> A              
     e(  8 -  8) =      8.85279  eV     1   --> A              
     e(  9 -  9) =      9.06209  eV     1   --> A              
     e( 10 - 10) =      9.07899  eV     1   --> A              
     e( 11 - 11) =      9.68748  eV     1   --> A              
     e( 12 - 12) =      9.69916  eV     1   --> A              
     e( 13 - 13) =     10.02358  eV     1   --> A              
     e( 14 - 14) =     10.12288  eV     1   --> A              
     e( 15 - 15) =     10.25977  eV     1   --> A              
     e( 16 - 16) =     10.26207  eV     1   --> A              
     e( 17 - 17) =     10.27573  eV     1   --> A              
     e( 18 - 18) =     10.41792  eV     1   --> A              
     e( 19 - 19) =     10.59494  eV     1   --> A              
     e( 20 - 20) =     10.65137  eV     1   --> A              
     e( 21 - 21) =     10.93655  eV     1   --> A              
     e( 22 - 22) =     10.93670  eV     1   --> A              
     e( 23 - 23) =     17.10455  eV     1   --> A              
     e( 24 - 24) =     17.44742  eV     1   --> A              
     e( 25 - 25) =     17.94369  eV     1   --> A              
     e( 26 - 26) =     18.30496  eV     1   --> A              

 **************************************************************************

 **************************************************************************

[...]
     e(  6 -  7) =      8.71349  eV     2   --> B_2  D_4  S_4  
     e(  8 -  8) =      9.06421  eV     1   --> B_2  D_4  S_4  
     e(  9 - 10) =      9.19958  eV     2   --> A_1  D_1  S_1  
     e(  9 - 10) =      9.19958  eV     2   --> B_1  D_3  S_3  
     e( 11 - 11) =      9.34014  eV     1   --> B_2  D_4  S_4  
     e( 12 - 12) =      9.59070  eV     1   --> A_1  D_1  S_1  
     e( 13 - 13) =      9.91845  eV     1   --> A_2  D_2  S_2  
     e( 14 - 14) =     10.00842  eV     1   --> B_1  D_3  S_3  
     e( 15 - 15) =     10.22577  eV     1   --> B_1  D_3  S_3  
     e( 16 - 17) =     10.33798  eV     2   --> A_1  D_1  S_1  
     e( 16 - 17) =     10.33798  eV     2   --> B_1  D_3  S_3  
     e( 18 - 19) =     10.53339  eV     2   --> A_2  D_2  S_2  
     e( 18 - 19) =     10.53339  eV     2   --> B_2  D_4  S_4  
     e( 20 - 20) =     10.66461  eV     1   --> A_2  D_2  S_2  
     e( 21 - 21) =     10.79414  eV     1   --> A_1  D_1  S_1  
     e( 22 - 23) =     12.37127  eV     2   --> A_1  D_1  S_1  
     e( 22 - 23) =     12.37127  eV     2   --> B_1  D_3  S_3  
     e( 24 - 24) =     15.55042  eV     1   --> A_1  D_1  S_1  
     e( 25 - 25) =     18.41059  eV     1   --> B_2  D_4  S_4  
     e( 26 - 26) =     20.88731  eV     1   --> A_1  D_1  S_1  

 **************************************************************************

 **************************************************************************

                    xk=(   0.30000,   0.30000,   0.00000  )

     Band symmetry, C_2v (mm2)  point group:

     e(  1 -  1) =      5.19862  eV     1   --> A_1  D_1  S_1  
     e(  2 -  3) =      7.96156  eV     2   --> A_1  D_1  S_1  
     e(  2 -  3) =      7.96156  eV     2   --> B_1  D_3  S_3  
     e(  4 -  4) =      8.39261  eV     1   --> A_1  D_1  S_1  
     e(  5 -  5) =      8.55615  eV     1   --> A_1  D_1  S_1  
     e(  6 -  7) =      8.61107  eV     2   --> A_2  D_2  S_2  
     e(  6 -  7) =      8.61107  eV     2   --> B_2  D_4  S_4  
     e(  8 -  8) =      9.12024  eV     1   --> B_2  D_4  S_4  
     e(  9 - 10) =      9.33975  eV     2   --> A_1  D_1  S_1  
     e(  9 - 10) =      9.33975  eV     2   --> B_1  D_3  S_3  
     e( 11 - 11) =      9.49443  eV     1   --> B_2  D_4  S_4  
     e( 12 - 12) =      9.63641  eV     1   --> A_1  D_1  S_1  
     e( 13 - 13) =      9.83712  eV     1   --> A_2  D_2  S_2  
     e( 14 - 14) =     10.04415  eV     1   --> B_1  D_3  S_3  
     e( 15 - 15) =     10.31289  eV     1   --> B_1  D_3  S_3  
     e( 16 - 17) =     10.44630  eV     2   --> A_1  D_1  S_1  
     e( 16 - 17) =     10.44630  eV     2   --> B_1  D_3  S_3  
     e( 18 - 19) =     10.61639  eV     2   --> A_2  D_2  S_2  
     e( 18 - 19) =     10.61639  eV     2   --> B_2  D_4  S_4  
     e( 20 - 20) =     10.63180  eV     1   --> A_1  D_1  S_1  
     e( 21 - 21) =     10.73421  eV     1   --> A_2  D_2  S_2  
     e( 22 - 23) =     12.48475  eV     2   --> A_1  D_1  S_1  
     e( 22 - 23) =     12.48475  eV     2   --> B_1  D_3  S_3  
     e( 24 - 24) =     16.61142  eV     1   --> A_1  D_1  S_1  
     e( 25 - 25) =     17.66803  eV     1   --> B_2  D_4  S_4  
     e( 26 - 26) =     20.54478  eV     1   --> A_1  D_1  S_1  

 **************************************************************************

 **************************************************************************

                    xk=(   0.26250,   0.26250,   0.00000  )

     Band symmetry, C_2v (mm2)  point group:

     e(  1 -  1) =      4.74298  eV     1   --> A_1  D_1  S_1  
     e(  2 -  3) =      7.93030  eV     2   --> A_1  D_1  S_1  
     e(  2 -  3) =      7.93030  eV     2   --> B_1  D_3  S_3  
     e(  4 -  4) =      8.26793  eV     1   --> A_1  D_1  S_1  
     e(  5 -  5) =      8.47908  eV     1   --> A_1  D_1  S_1  
     e(  6 -  7) =      8.50907  eV     2   --> A_2  D_2  S_2  
     e(  6 -  7) =      8.50907  eV     2   --> B_2  D_4  S_4  
     e(  8 -  8) =      9.18286  eV     1   --> B_2  D_4  S_4  
     e(  9 - 10) =      9.55380  eV     2   --> A_1  D_1  S_1  
     e(  9 - 10) =      9.55380  eV     2   --> B_1  D_3  S_3  
     e( 11 - 11) =      9.65862  eV     1   --> A_1  D_1  S_1  
     e( 12 - 12) =      9.67530  eV     1   --> B_2  D_4  S_4  
     e( 13 - 13) =      9.76163  eV     1   --> A_2  D_2  S_2  
     e( 14 - 14) =     10.08600  eV     1   --> B_1  D_3  S_3  
     e( 15 - 15) =     10.40585  eV     1   --> B_1  D_3  S_3  
     e( 16 - 16) =     10.50699  eV     1   --> A_1  D_1  S_1  
     e( 17 - 18) =     10.54509  eV     2   --> A_1  D_1  S_1  
     e( 17 - 18) =     10.54509  eV     2   --> B_1  D_3  S_3  
     e( 19 - 20) =     10.69783  eV     2   --> A_2  D_2  S_2  
     e( 19 - 20) =     10.69783  eV     2   --> B_2  D_4  S_4  
     e( 21 - 21) =     10.79703  eV     1   --> A_2  D_2  S_2  
     e( 22 - 23) =     12.62480  eV     2   --> A_1  D_1  S_1  
     e( 22 - 23) =     12.62480  eV     2   --> B_1  D_3  S_3  
     e( 24 - 24) =     16.96706  eV     1   --> B_2  D_4  S_4  
     e( 25 - 25) =     17.74338  eV     1   --> A_1  D_1  S_1  
     e( 26 - 26) =     20.26979  eV     1   --> A_1  D_1  S_1  

 **************************************************************************

 **************************************************************************

                    xk=(   0.22500,   0.22500,   0.00000  )

     Band symmetry, C_2v (mm2)  point group:

     e(  1 -  1) =      4.33445  eV     1   --> A_1  D_1  S_1  
     e(  2 -  3) =      7.87876  eV     2   --> A_1  D_1  S_1  
     e(  2 -  3) =      7.87876  eV     2   --> B_1  D_3  S_3  
     e(  4 -  4) =      8.13345  eV     1   --> A_1  D_1  S_1  
     e(  5 -  5) =      8.39967  eV     1   --> A_1  D_1  S_1  
     e(  6 -  7) =      8.41230  eV     2   --> A_2  D_2  S_2  
     e(  6 -  7) =      8.41230  eV     2   --> B_2  D_4  S_4  
     e(  8 -  8) =      9.24806  eV     1   --> B_2  D_4  S_4  
     e(  9 -  9) =      9.65609  eV     1   --> A_1  D_1  S_1  
     e( 10 - 10) =      9.69328  eV     1   --> A_2  D_2  S_2  
     e( 11 - 12) =      9.81913  eV     2   --> A_1  D_1  S_1  
     e( 11 - 12) =      9.81913  eV     2   --> B_1  D_3  S_3  
     e( 13 - 13) =      9.88040  eV     1   --> B_2  D_4  S_4  
     e( 14 - 14) =     10.13099  eV     1   --> B_1  D_3  S_3  
     e( 15 - 15) =     10.41816  eV     1   --> A_1  D_1  S_1  
     e( 16 - 16) =     10.50059  eV     1   --> B_1  D_3  S_3  
     e( 17 - 18) =     10.63133  eV     2   --> A_1  D_1  S_1  
     e( 17 - 18) =     10.63133  eV     2   --> B_1  D_3  S_3  
     e( 19 - 20) =     10.77408  eV     2   --> A_2  D_2  S_2  
     e( 19 - 20) =     10.77408  eV     2   --> B_2  D_4  S_4  
     e( 21 - 21) =     10.85247  eV     1   --> A_2  D_2  S_2  
     e( 22 - 23) =     12.79265  eV     2   --> A_1  D_1  S_1  
     e( 22 - 23) =     12.79265  eV     2   --> B_1  D_3  S_3  
     e( 24 - 24) =     16.31053  eV     1   --> B_2  D_4  S_4  
     e( 25 - 25) =     18.91846  eV     1   --> A_1  D_1  S_1  
     e( 26 - 26) =     20.07003  eV     1   --> A_1  D_1  S_1  

 **************************************************************************

 **************************************************************************

                    xk=(   0.18750,   0.18750,   0.00000  )

     Band symmetry, C_2v (mm2)  point group:

     e(  1 -  1) =      3.97995  eV     1   --> A_1  D_1  S_1  
     e(  2 -  3) =      7.81993  eV     2   --> A_1  D_1  S_1  
     e(  2 -  3) =      7.81993  eV     2   --> B_1  D_3  S_3  
     e(  4 -  4) =      8.00297  eV     1   --> A_1  D_1  S_1  
     e(  5 -  5) =      8.32086  eV     1   --> A_1  D_1  S_1  
     e(  6 -  7) =      8.32458  eV     2   --> A_2  D_2  S_2  
     e(  6 -  7) =      8.32458  eV     2   --> B_2  D_4  S_4  
     e(  8 -  8) =      9.31180  eV     1   --> B_2  D_4  S_4  
     e(  9 -  9) =      9.63203  eV     1   --> A_1  D_1  S_1  
     e( 10 - 10) =      9.63326  eV     1   --> A_2  D_2  S_2  
     e( 11 - 11) =     10.10548  eV     1   --> B_2  D_4  S_4  
     e( 12 - 13) =     10.10767  eV     2   --> A_1  D_1  S_1  
     e( 12 - 13) =     10.10767  eV     2   --> B_1  D_3  S_3  
     e( 14 - 14) =     10.17599  eV     1   --> B_1  D_3  S_3  
     e( 15 - 15) =     10.36164  eV     1   --> A_1  D_1  S_1  
     e( 16 - 16) =     10.59258  eV     1   --> B_1  D_3  S_3  
     e( 17 - 18) =     10.70385  eV     2   --> A_1  D_1  S_1  
     e( 17 - 18) =     10.70385  eV     2   --> B_1  D_3  S_3  
     e( 19 - 20) =     10.84247  eV     2   --> A_2  D_2  S_2  
     e( 19 - 20) =     10.84247  eV     2   --> B_2  D_4  S_4  
     e( 21 - 21) =     10.90008  eV     1   --> A_2  D_2  S_2  
     e( 22 - 23) =     12.98902  eV     2   --> A_1  D_1  S_1  
     e( 22 - 23) =     12.98902  eV     2   --> B_1  D_3  S_3  
     e( 24 - 24) =     15.70306  eV     1   --> B_2  D_4  S_4  
     e( 25 - 25) =     19.73388  eV     1   --> A_1  D_1  S_1  
     e( 26 - 26) =     20.32758  eV     1   --> A_1  D_1  S_1  

 **************************************************************************

 **************************************************************************

                    xk=(   0.15000,   0.15000,   0.00000  )

     Band symmetry, C_2v (mm2)  point group:

     e(  1 -  1) =      3.68442  eV     1   --> A_1  D_1  S_1  
     e(  2 -  3) =      7.76307  eV     2   --> A_1  D_1  S_1  
     e(  2 -  3) =      7.76307  eV     2   --> B_1  D_3  S_3  
     e(  4 -  4) =      7.88454  eV     1   --> A_1  D_1  S_1  
     e(  5 -  5) =      8.24879  eV     1   --> A_1  D_1  S_1  
     e(  6 -  7) =      8.24892  eV     2   --> A_2  D_2  S_2  
     e(  6 -  7) =      8.24892  eV     2   --> B_2  D_4  S_4  
     e(  8 -  8) =      9.37023  eV     1   --> B_2  D_4  S_4  
     e(  9 -  9) =      9.58263  eV     1   --> A_2  D_2  S_2  
     e( 10 - 10) =      9.59475  eV     1   --> A_1  D_1  S_1  
     e( 11 - 11) =     10.21795  eV     1   --> B_1  D_3  S_3  
     e( 12 - 12) =     10.33003  eV     1   --> A_1  D_1  S_1  
     e( 13 - 13) =     10.34308  eV     1   --> B_2  D_4  S_4  
     e( 14 - 15) =     10.39012  eV     2   --> A_1  D_1  S_1  
     e( 14 - 15) =     10.39012  eV     2   --> B_1  D_3  S_3  
     e( 16 - 16) =     10.67698  eV     1   --> B_1  D_3  S_3  
     e( 17 - 18) =     10.76293  eV     2   --> A_1  D_1  S_1  
     e( 17 - 18) =     10.76293  eV     2   --> B_1  D_3  S_3  
     e( 19 - 20) =     10.90094  eV     2   --> A_2  D_2  S_2  
     e( 19 - 20) =     10.90094  eV     2   --> B_2  D_4  S_4  
     e( 21 - 21) =     10.93944  eV     1   --> A_2  D_2  S_2  
     e( 22 - 23) =     13.21207  eV     2   --> A_1  D_1  S_1  
     e( 22 - 23) =     13.21207  eV     2   --> B_1  D_3  S_3  
     e( 24 - 24) =     15.15238  eV     1   --> B_2  D_4  S_4  
     e( 25 - 25) =     19.67828  eV     1   --> A_1  D_1  S_1  
     e( 26 - 26) =     21.52940  eV     1   --> A_1  D_1  S_1  

 **************************************************************************

 **************************************************************************

                    xk=(   0.11250,   0.11250,   0.00000  )

     Band symmetry, C_2v (mm2)  point group:

     e(  1 -  1) =      3.45140  eV     1   --> A_1  D_1  S_1  
     e(  2 -  3) =      7.71418  eV     2   --> A_1  D_1  S_1  
     e(  2 -  3) =      7.71418  eV     2   --> B_1  D_3  S_3  
     e(  4 -  4) =      7.78475  eV     1   --> A_1  D_1  S_1  
     e(  5 -  6) =      8.18770  eV     2   --> A_2  D_2  S_2  
     e(  5 -  6) =      8.18770  eV     2   --> B_2  D_4  S_4  
     e(  7 -  7) =      8.18846  eV     1   --> A_1  D_1  S_1  
     e(  8 -  8) =      9.41980  eV     1   --> B_2  D_4  S_4  
     e(  9 -  9) =      9.54229  eV     1   --> A_2  D_2  S_2  
     e( 10 - 10) =      9.55450  eV     1   --> A_1  D_1  S_1  
     e( 11 - 11) =     10.25400  eV     1   --> B_1  D_3  S_3  
     e( 12 - 12) =     10.31453  eV     1   --> A_1  D_1  S_1  
     e( 13 - 13) =     10.58015  eV     1   --> B_2  D_4  S_4  
     e( 14 - 15) =     10.63672  eV     2   --> A_1  D_1  S_1  
     e( 14 - 15) =     10.63672  eV     2   --> B_1  D_3  S_3  
     e( 16 - 16) =     10.74896  eV     1   --> B_1  D_3  S_3  
     e( 17 - 18) =     10.81108  eV     2   --> A_1  D_1  S_1  
     e( 17 - 18) =     10.81108  eV     2   --> B_1  D_3  S_3  
     e( 19 - 20) =     10.94796  eV     2   --> A_2  D_2  S_2  
     e( 19 - 20) =     10.94796  eV     2   --> B_2  D_4  S_4  
     e( 21 - 21) =     10.97033  eV     1   --> A_2  D_2  S_2  
     e( 22 - 23) =     13.45216  eV     2   --> A_1  D_1  S_1  
     e( 22 - 23) =     13.45216  eV     2   --> B_1  D_3  S_3  
     e( 24 - 24) =     14.67168  eV     1   --> B_2  D_4  S_4  
     e( 25 - 25) =     19.59071  eV     1   --> A_1  D_1  S_1  
     e( 26 - 26) =     20.73276  eV     1   -->   ?

 **************************************************************************

 **************************************************************************

                    xk=(   0.07500,   0.07500,   0.00000  )

     Band symmetry, C_2v (mm2)  point group:

     e(  1 -  1) =      3.28333  eV     1   --> A_1  D_1  S_1  
     e(  2 -  3) =      7.67703  eV     2   --> A_1  D_1  S_1  
     e(  2 -  3) =      7.67703  eV     2   --> B_1  D_3  S_3  
     e(  4 -  4) =      7.70918  eV     1   --> A_1  D_1  S_1  
     e(  5 -  6) =      8.14271  eV     2   --> A_2  D_2  S_2  
     e(  5 -  6) =      8.14271  eV     2   --> B_2  D_4  S_4  
     e(  7 -  7) =      8.14328  eV     1   --> A_1  D_1  S_1  
     e(  8 -  8) =      9.45752  eV     1   --> B_2  D_4  S_4  
     e(  9 -  9) =      9.51295  eV     1   --> A_2  D_2  S_2  
     e( 10 - 10) =      9.51999  eV     1   --> A_1  D_1  S_1  
     e( 11 - 11) =     10.28168  eV     1   --> B_1  D_3  S_3  
     e( 12 - 12) =     10.30792  eV     1   --> A_1  D_1  S_1  
     e( 13 - 13) =     10.79447  eV     1   --> B_2  D_4  S_4  
     e( 14 - 15) =     10.80105  eV     2   --> A_1  D_1  S_1  
     e( 14 - 15) =     10.80105  eV     2   --> B_1  D_3  S_3  
     e( 16 - 16) =     10.80405  eV     1   --> B_1  D_3  S_3  
     e( 17 - 18) =     10.87198  eV     2   --> A_1  D_1  S_1  
     e( 17 - 18) =     10.87198  eV     2   --> B_1  D_3  S_3  
     e( 19 - 20) =     10.98236  eV     2   --> A_2  D_2  S_2  
     e( 19 - 20) =     10.98236  eV     2   --> B_2  D_4  S_4  
     e( 21 - 21) =     10.99252  eV     1   --> A_2  D_2  S_2  
     e( 22 - 23) =     13.68374  eV     2   --> A_1  D_1  S_1  
     e( 22 - 23) =     13.68374  eV     2   --> B_1  D_3  S_3  
     e( 24 - 24) =     14.28328  eV     1   --> B_2  D_4  S_4  
     e( 25 - 25) =     19.52708  eV     1   --> A_1  D_1  S_1  
     e( 26 - 26) =     20.07050  eV     1   -->   ?

 **************************************************************************

 **************************************************************************

                    xk=(   0.03750,   0.03750,   0.00000  )

     Band symmetry, C_2v (mm2)  point group:

     e(  1 -  1) =      3.18186  eV     1   --> A_1  D_1  S_1  
     e(  2 -  3) =      7.65391  eV     2   --> A_1  D_1  S_1  
     e(  2 -  3) =      7.65391  eV     2   --> B_1  D_3  S_3  
     e(  4 -  4) =      7.66207  eV     1   --> A_1  D_1  S_1  
     e(  5 -  6) =      8.11521  eV     2   --> A_2  D_2  S_2  
     e(  5 -  6) =      8.11521  eV     2   --> B_2  D_4  S_4  
     e(  7 -  7) =      8.11538  eV     1   --> A_1  D_1  S_1  
     e(  8 -  8) =      9.48112  eV     1   --> B_2  D_4  S_4  
     e(  9 -  9) =      9.49513  eV     1   --> A_2  D_2  S_2  
     e( 10 - 10) =      9.49711  eV     1   --> A_1  D_1  S_1  
     e( 11 - 11) =     10.29908  eV     1   --> B_1  D_3  S_3  
     e( 12 - 12) =     10.30556  eV     1   --> A_1  D_1  S_1  
     e( 13 - 13) =     10.83867  eV     1   --> B_1  D_3  S_3  
     e( 14 - 15) =     10.84213  eV     2   --> A_1  D_1  S_1  
     e( 14 - 15) =     10.84213  eV     2   --> B_1  D_3  S_3  
     e( 16 - 16) =     10.95137  eV     1   --> B_2  D_4  S_4  
     e( 17 - 18) =     10.97119  eV     2   --> A_1  D_1  S_1  
     e( 17 - 18) =     10.97119  eV     2   --> B_1  D_3  S_3  
     e( 19 - 20) =     11.00331  eV     2   --> A_2  D_2  S_2  
     e( 19 - 20) =     11.00331  eV     2   --> B_2  D_4  S_4  
     e( 21 - 21) =     11.00589  eV     1   --> A_2  D_2  S_2  
     e( 22 - 23) =     13.86050  eV     2   --> A_1  D_1  S_1  
     e( 22 - 23) =     13.86050  eV     2   --> B_1  D_3  S_3  
     e( 24 - 24) =     14.02191  eV     1   --> B_2  D_4  S_4  
     e( 25 - 25) =     19.48941  eV     1   --> A_1  D_1  S_1  
     e( 26 - 26) =     19.63217  eV     1   -->   ?

 **************************************************************************

 **************************************************************************

                    xk=(   0.00000,   0.00000,   0.00000  )

     point group O_h (m-3m) 
     there are 10 classes
     the character table:

       E     8C3   3C2   6C4   6C2'  i     8S6   3s_h  6S4   6s_d 
A_1g   1.00  1.00  1.00  1.00  1.00  1.00  1.00  1.00  1.00  1.00
A_2g   1.00  1.00  1.00 -1.00 -1.00  1.00  1.00  1.00 -1.00 -1.00
E_g    2.00 -1.00  2.00  0.00  0.00  2.00 -1.00  2.00  0.00  0.00
T_1g   3.00  0.00 -1.00  1.00 -1.00  3.00  0.00 -1.00  1.00 -1.00
T_2g   3.00  0.00 -1.00 -1.00  1.00  3.00  0.00 -1.00 -1.00  1.00
A_1u   1.00  1.00  1.00  1.00  1.00 -1.00 -1.00 -1.00 -1.00 -1.00
A_2u   1.00  1.00  1.00 -1.00 -1.00 -1.00 -1.00 -1.00  1.00  1.00
E_u    2.00 -1.00  2.00  0.00  0.00 -2.00  1.00 -2.00  0.00  0.00
T_1u   3.00  0.00 -1.00  1.00 -1.00 -3.00  0.00  1.00 -1.00  1.00
T_2u   3.00  0.00 -1.00 -1.00  1.00 -3.00  0.00  1.00  1.00 -1.00

     the symmetry operations in each class and the name of the first element:

     E        1
                                                                 
     8C3     17   19   20   18   24   21   22   23
                                                                 
     3C2      2    4    3
                                                                 
     6C4      7    8   15   16   12   11
                                                                 
     6C2'     5    6   14   13   10    9
                                                                 
     i       25
                                                                 
     8S6     41   43   44   42   48   45   46   47
                                                                 
     3s_h    26   28   27
                                                                 
     6S4     31   32   39   40   36   35
                                                                 
     6s_d    29   30   38   37   34   33
                                                                 

     Band symmetry, O_h (m-3m)  point group:

     e(  1 -  1) =      3.14794  eV     1   --> A_1g G_1   G_1+
     e(  2 -  4) =      7.64606  eV     3   --> A_1g G_1   G_1+
     e(  2 -  4) =      7.64606  eV     3   --> E_g  G_12  G_3+
     e(  5 -  7) =      8.10596  eV     3   --> T_2g G_25' G_5+
     e(  8 - 10) =      9.48915  eV     3   --> T_2g G_25' G_5+
     e( 11 - 12) =     10.30503  eV     2   --> E_g  G_12  G_3+
     e( 13 - 15) =     10.85048  eV     3   --> A_2g G_2   G_2+
     e( 13 - 15) =     10.85048  eV     3   --> E_g  G_12  G_3+
     e( 16 - 21) =     11.01034  eV     6   --> T_1g G_15' G_4+
     e( 16 - 21) =     11.01034  eV     6   --> T_2g G_25' G_5+
     e( 22 - 24) =     13.92810  eV     3   --> T_1u G_15  G_4-
     e( 25 - 26) =     19.47698  eV     2   -->   ?

 **************************************************************************

     BANDS        :   7m38.04s CPU   1m46.15s WALL


   This run was terminated on:  16:23:57  24Jan2026            

=------------------------------------------------------------------------------=
   JOB DONE.
=------------------------------------------------------------------------------=
