
     Program PROJWFC v.7.2 starts on 24Jan2026 at 16:41:57 

     This program is part of the open-source Quantum ESPRESSO suite
     for quantum simulation of materials; please cite
         "P. Giannozzi et al., J. Phys.:Condens. Matter 21 395502 (2009);
         "P. Giannozzi et al., J. Phys.:Condens. Matter 29 465901 (2017);
         "P. Giannozzi et al., J. Chem. Phys. 152 154105 (2020);
          URL http://www.quantum-espresso.org", 
     in publications or presentations arising from this work. More details at
     http://www.quantum-espresso.org/quote

     Parallel version (MPI), running on     1 processors

     MPI processes distributed on     1 nodes
     0 MiB available memory on the printing compute node when the environment starts


     Reading xml data from directory:

     /Users/vittoriodibona/Desktop/Tutorial_LAMMPS/Esame/CopperQE/3_electronic/tmp/Cu_fcc.save/
     file Cu.pbe-dn-kjpaw_psl.1.0.0.UPF: wavefunction(s)  4S 3D renormalized

     IMPORTANT: XC functional enforced from input :
     Exchange-correlation= PBE
                           (   1   4   3   4   0   0   0)
     Any further DFT definition will be discarded
     Please, verify this is what you really want


     G-vector sticks info
     --------------------
     sticks:   dense  smooth     PW     G-vecs:    dense   smooth      PW
     Sum        2989    1201    349               123449    31343    4945

     Using Slab Decomposition


     Optimized tetrahedron method (read from file) 
     [opt_tetra]  Optimized tetrahedron method is used.

     Calling projwave .... 
     Subspace diagonalization in iterative solution of the eigenvalue problem:
     a serial algorithm will be used


  Problem Sizes 
  natomwfc =           36
  nbnd     =           26
  nkstot   =           84
  npwx     =         3948
  nkb      =           72


     Atomic states used for projection
     (read from pseudopotential files):

     state #   1: atom   1 (Cu ), wfc  1 (l=0 m= 1)
     state #   2: atom   1 (Cu ), wfc  2 (l=1 m= 1)
     state #   3: atom   1 (Cu ), wfc  2 (l=1 m= 2)
     state #   4: atom   1 (Cu ), wfc  2 (l=1 m= 3)
     state #   5: atom   1 (Cu ), wfc  3 (l=2 m= 1)
     state #   6: atom   1 (Cu ), wfc  3 (l=2 m= 2)
     state #   7: atom   1 (Cu ), wfc  3 (l=2 m= 3)
     state #   8: atom   1 (Cu ), wfc  3 (l=2 m= 4)
     state #   9: atom   1 (Cu ), wfc  3 (l=2 m= 5)
     state #  10: atom   2 (Cu ), wfc  1 (l=0 m= 1)
     state #  11: atom   2 (Cu ), wfc  2 (l=1 m= 1)
     state #  12: atom   2 (Cu ), wfc  2 (l=1 m= 2)
     state #  13: atom   2 (Cu ), wfc  2 (l=1 m= 3)
     state #  14: atom   2 (Cu ), wfc  3 (l=2 m= 1)
     state #  15: atom   2 (Cu ), wfc  3 (l=2 m= 2)
     state #  16: atom   2 (Cu ), wfc  3 (l=2 m= 3)
     state #  17: atom   2 (Cu ), wfc  3 (l=2 m= 4)
     state #  18: atom   2 (Cu ), wfc  3 (l=2 m= 5)
     state #  19: atom   3 (Cu ), wfc  1 (l=0 m= 1)
     state #  20: atom   3 (Cu ), wfc  2 (l=1 m= 1)
     state #  21: atom   3 (Cu ), wfc  2 (l=1 m= 2)
     state #  22: atom   3 (Cu ), wfc  2 (l=1 m= 3)
     state #  23: atom   3 (Cu ), wfc  3 (l=2 m= 1)
     state #  24: atom   3 (Cu ), wfc  3 (l=2 m= 2)
     state #  25: atom   3 (Cu ), wfc  3 (l=2 m= 3)
     state #  26: atom   3 (Cu ), wfc  3 (l=2 m= 4)
     state #  27: atom   3 (Cu ), wfc  3 (l=2 m= 5)
     state #  28: atom   4 (Cu ), wfc  1 (l=0 m= 1)
     state #  29: atom   4 (Cu ), wfc  2 (l=1 m= 1)
     state #  30: atom   4 (Cu ), wfc  2 (l=1 m= 2)
     state #  31: atom   4 (Cu ), wfc  2 (l=1 m= 3)
     state #  32: atom   4 (Cu ), wfc  3 (l=2 m= 1)
     state #  33: atom   4 (Cu ), wfc  3 (l=2 m= 2)
     state #  34: atom   4 (Cu ), wfc  3 (l=2 m= 3)
     state #  35: atom   4 (Cu ), wfc  3 (l=2 m= 4)
     state #  36: atom   4 (Cu ), wfc  3 (l=2 m= 5)

 k =   0.0000000000  0.0000000000  0.0000000000
==== e(   1) =     3.14794 eV ==== 
     psi = 0.250*[#   1]+0.250*[#  10]+0.250*[#  19]+0.250*[#  28]
    |psi|^2 = 1.000
==== e(   2) =     7.64606 eV ==== 
     psi = 0.310*[#  14]+0.233*[#  26]+0.233*[#  35]+0.078*[#  23]+0.078*[#  32]
          +0.047*[#   1]+0.005*[#  10]+0.005*[#  19]+0.005*[#  28]
    |psi|^2 = 0.997
==== e(   3) =     7.64607 eV ==== 
     psi = 0.174*[#   5]+0.174*[#   8]+0.174*[#  17]+0.136*[#  23]+0.136*[#  32]
          +0.059*[#  26]+0.059*[#  35]+0.021*[#  10]+0.021*[#  14]+0.021*[#  19]
          +0.021*[#  28]
    |psi|^2 = 0.997
==== e(   4) =     7.64607 eV ==== 
     psi = 0.175*[#   5]+0.175*[#   8]+0.175*[#  17]+0.136*[#  23]+0.136*[#  32]
          +0.058*[#  26]+0.058*[#  35]+0.021*[#  10]+0.021*[#  19]+0.021*[#  28]
          +0.019*[#  14]
    |psi|^2 = 0.997
==== e(   5) =     8.10596 eV ==== 
     psi = 0.083*[#   6]+0.083*[#   7]+0.083*[#   9]+0.083*[#  15]+0.083*[#  16]
          +0.083*[#  18]+0.083*[#  24]+0.083*[#  25]+0.083*[#  27]+0.083*[#  33]
          +0.083*[#  34]+0.083*[#  36]
    |psi|^2 = 0.997
==== e(   6) =     8.10596 eV ==== 
     psi = 0.083*[#   6]+0.083*[#   7]+0.083*[#   9]+0.083*[#  15]+0.083*[#  16]
          +0.083*[#  18]+0.083*[#  24]+0.083*[#  25]+0.083*[#  27]+0.083*[#  33]
          +0.083*[#  34]+0.083*[#  36]
    |psi|^2 = 0.997
==== e(   7) =     8.10596 eV ==== 
     psi = 0.083*[#   6]+0.083*[#   7]+0.083*[#   9]+0.083*[#  15]+0.083*[#  16]
          +0.083*[#  18]+0.083*[#  24]+0.083*[#  25]+0.083*[#  27]+0.083*[#  33]
          +0.083*[#  34]+0.083*[#  36]
    |psi|^2 = 0.997
==== e(   8) =     9.48915 eV ==== 
     psi = 0.083*[#   6]+0.083*[#   7]+0.083*[#   9]+0.083*[#  15]+0.083*[#  16]
          +0.083*[#  18]+0.083*[#  24]+0.083*[#  25]+0.083*[#  27]+0.083*[#  33]
          +0.083*[#  34]+0.083*[#  36]
    |psi|^2 = 1.000
==== e(   9) =     9.48915 eV ==== 
     psi = 0.083*[#   6]+0.083*[#   7]+0.083*[#   9]+0.083*[#  15]+0.083*[#  16]
          +0.083*[#  18]+0.083*[#  24]+0.083*[#  25]+0.083*[#  27]+0.083*[#  33]
          +0.083*[#  34]+0.083*[#  36]
    |psi|^2 = 1.000
==== e(  10) =     9.48915 eV ==== 
     psi = 0.083*[#   6]+0.083*[#   7]+0.083*[#   9]+0.083*[#  15]+0.083*[#  16]
          +0.083*[#  18]+0.083*[#  24]+0.083*[#  25]+0.083*[#  27]+0.083*[#  33]
          +0.083*[#  34]+0.083*[#  36]
    |psi|^2 = 1.000
==== e(  11) =    10.30503 eV ==== 
     psi = 0.125*[#   5]+0.125*[#   8]+0.125*[#  14]+0.125*[#  17]+0.125*[#  23]
          +0.125*[#  26]+0.125*[#  32]+0.125*[#  35]
    |psi|^2 = 1.000
==== e(  12) =    10.30503 eV ==== 
     psi = 0.125*[#   5]+0.125*[#   8]+0.125*[#  14]+0.125*[#  17]+0.125*[#  23]
          +0.125*[#  26]+0.125*[#  32]+0.125*[#  35]
    |psi|^2 = 1.000
==== e(  13) =    10.85048 eV ==== 
     psi = 0.331*[#  17]+0.248*[#  23]+0.248*[#  32]+0.084*[#  26]+0.084*[#  35]
          +0.001*[#   5]+0.001*[#   8]+0.001*[#  14]
    |psi|^2 = 1.000
==== e(  14) =    10.85050 eV ==== 
     psi = 0.187*[#   5]+0.187*[#   8]+0.187*[#  14]+0.145*[#  26]+0.145*[#  35]
          +0.063*[#  23]+0.063*[#  32]+0.022*[#  17]
    |psi|^2 = 1.000
==== e(  15) =    10.85050 eV ==== 
     psi = 0.187*[#   5]+0.187*[#   8]+0.187*[#  14]+0.146*[#  26]+0.146*[#  35]
          +0.063*[#  23]+0.063*[#  32]+0.022*[#  17]
    |psi|^2 = 1.000
==== e(  16) =    11.01034 eV ==== 
     psi = 0.167*[#  15]+0.167*[#  16]+0.167*[#  25]+0.167*[#  27]+0.167*[#  33]
          +0.167*[#  36]
    |psi|^2 = 1.000
==== e(  17) =    11.01034 eV ==== 
     psi = 0.167*[#  15]+0.167*[#  16]+0.167*[#  25]+0.167*[#  27]+0.167*[#  33]
          +0.167*[#  36]
    |psi|^2 = 1.000
==== e(  18) =    11.01034 eV ==== 
     psi = 0.167*[#  15]+0.167*[#  16]+0.167*[#  25]+0.167*[#  27]+0.167*[#  33]
          +0.167*[#  36]
    |psi|^2 = 1.000
==== e(  19) =    11.01036 eV ==== 
     psi = 0.167*[#   6]+0.167*[#   7]+0.167*[#   9]+0.167*[#  18]+0.167*[#  24]
          +0.167*[#  34]
    |psi|^2 = 1.000
==== e(  20) =    11.01036 eV ==== 
     psi = 0.167*[#   6]+0.167*[#   7]+0.167*[#   9]+0.167*[#  18]+0.167*[#  24]
          +0.167*[#  34]
    |psi|^2 = 1.000
==== e(  21) =    11.01036 eV ==== 
     psi = 0.167*[#   6]+0.167*[#   7]+0.167*[#   9]+0.167*[#  18]+0.167*[#  24]
          +0.167*[#  34]
    |psi|^2 = 1.000
==== e(  22) =    13.92810 eV ==== 
     psi = 0.083*[#   2]+0.083*[#   3]+0.083*[#   4]+0.083*[#  11]+0.083*[#  12]
          +0.083*[#  13]+0.083*[#  20]+0.083*[#  21]+0.083*[#  22]+0.083*[#  29]
          +0.083*[#  30]+0.083*[#  31]
    |psi|^2 = 0.996
==== e(  23) =    13.92810 eV ==== 
     psi = 0.083*[#   2]+0.083*[#   3]+0.083*[#   4]+0.083*[#  11]+0.083*[#  12]
          +0.083*[#  13]+0.083*[#  20]+0.083*[#  21]+0.083*[#  22]+0.083*[#  29]
          +0.083*[#  30]+0.083*[#  31]
    |psi|^2 = 0.996
==== e(  24) =    13.92810 eV ==== 
     psi = 0.083*[#   2]+0.083*[#   3]+0.083*[#   4]+0.083*[#  11]+0.083*[#  12]
          +0.083*[#  13]+0.083*[#  20]+0.083*[#  21]+0.083*[#  22]+0.083*[#  29]
          +0.083*[#  30]+0.083*[#  31]
    |psi|^2 = 0.996
==== e(  25) =    19.47698 eV ==== 
     psi = 0.263*[#   1]+0.199*[#  10]+0.199*[#  19]+0.199*[#  28]+0.010*[#  14]
          +0.009*[#  26]+0.009*[#  35]+0.008*[#  23]+0.008*[#  32]+0.007*[#   5]
          +0.007*[#   8]+0.007*[#  17]
    |psi|^2 = 0.924
==== e(  26) =    19.47698 eV ==== 
     psi = 0.278*[#  10]+0.278*[#  19]+0.278*[#  28]+0.024*[#   1]+0.012*[#   5]
          +0.012*[#   8]+0.012*[#  17]+0.009*[#  23]+0.009*[#  32]+0.005*[#  26]
          +0.005*[#  35]+0.002*[#  14]
    |psi|^2 = 0.924

 k =   0.0000000000  0.0000000000  0.0833333333
==== e(   1) =     3.23163 eV ==== 
     psi = 0.210*[#   1]+0.210*[#  10]+0.210*[#  19]+0.210*[#  28]+0.013*[#   2]
          +0.013*[#   3]+0.013*[#   4]+0.013*[#  11]+0.013*[#  12]+0.013*[#  13]
          +0.013*[#  20]+0.013*[#  21]+0.013*[#  22]+0.013*[#  29]+0.013*[#  30]
          +0.013*[#  31]
    |psi|^2 = 1.000
==== e(   2) =     7.64393 eV ==== 
     psi = 0.115*[#   5]+0.115*[#   8]+0.115*[#  14]+0.115*[#  17]+0.115*[#  23]
          +0.115*[#  26]+0.115*[#  32]+0.115*[#  35]+0.018*[#   1]+0.018*[#  10]
          +0.018*[#  19]+0.018*[#  28]
    |psi|^2 = 0.997
==== e(   3) =     7.68532 eV ==== 
     psi = 0.214*[#  14]+0.176*[#  26]+0.176*[#  35]+0.098*[#  23]+0.098*[#  32]
          +0.059*[#  17]+0.056*[#   5]+0.056*[#   8]+0.030*[#   1]+0.010*[#  10]
          +0.010*[#  19]+0.010*[#  28]
    |psi|^2 = 0.998
==== e(   4) =     7.68532 eV ==== 
     psi = 0.177*[#   5]+0.177*[#   8]+0.174*[#  17]+0.135*[#  23]+0.135*[#  32]
          +0.058*[#  26]+0.058*[#  35]+0.020*[#  10]+0.020*[#  19]+0.020*[#  28]
          +0.019*[#  14]
    |psi|^2 = 0.998
==== e(   5) =     8.12829 eV ==== 
     psi = 0.083*[#   6]+0.083*[#   7]+0.083*[#   9]+0.083*[#  15]+0.083*[#  16]
          +0.083*[#  18]+0.083*[#  24]+0.083*[#  25]+0.083*[#  27]+0.083*[#  33]
          +0.083*[#  34]+0.083*[#  36]
    |psi|^2 = 0.997
==== e(   6) =     8.12934 eV ==== 
     psi = 0.083*[#   6]+0.083*[#   7]+0.083*[#   9]+0.083*[#  15]+0.083*[#  16]
          +0.083*[#  18]+0.083*[#  24]+0.083*[#  25]+0.083*[#  27]+0.083*[#  33]
          +0.083*[#  34]+0.083*[#  36]
    |psi|^2 = 0.998
==== e(   7) =     8.12934 eV ==== 
     psi = 0.083*[#   6]+0.083*[#   7]+0.083*[#   9]+0.083*[#  15]+0.083*[#  16]
          +0.083*[#  18]+0.083*[#  24]+0.083*[#  25]+0.083*[#  27]+0.083*[#  33]
          +0.083*[#  34]+0.083*[#  36]
    |psi|^2 = 0.998
==== e(   8) =     9.46429 eV ==== 
     psi = 0.083*[#   6]+0.083*[#   7]+0.083*[#   9]+0.083*[#  15]+0.083*[#  16]
          +0.083*[#  18]+0.083*[#  24]+0.083*[#  25]+0.083*[#  27]+0.083*[#  33]
          +0.083*[#  34]+0.083*[#  36]
    |psi|^2 = 1.000
==== e(   9) =     9.50899 eV ==== 
     psi = 0.083*[#   6]+0.083*[#   7]+0.083*[#   9]+0.083*[#  15]+0.083*[#  16]
          +0.083*[#  18]+0.083*[#  24]+0.083*[#  25]+0.083*[#  27]+0.083*[#  33]
          +0.083*[#  34]+0.083*[#  36]
    |psi|^2 = 1.000
==== e(  10) =     9.50899 eV ==== 
     psi = 0.083*[#   6]+0.083*[#   7]+0.083*[#   9]+0.083*[#  15]+0.083*[#  16]
          +0.083*[#  18]+0.083*[#  24]+0.083*[#  25]+0.083*[#  27]+0.083*[#  33]
          +0.083*[#  34]+0.083*[#  36]
    |psi|^2 = 1.000
==== e(  11) =    10.28251 eV ==== 
     psi = 0.125*[#   5]+0.125*[#   8]+0.125*[#  14]+0.125*[#  17]+0.125*[#  23]
          +0.125*[#  26]+0.125*[#  32]+0.125*[#  35]
    |psi|^2 = 1.000
==== e(  12) =    10.31412 eV ==== 
     psi = 0.125*[#   5]+0.125*[#   8]+0.125*[#  14]+0.125*[#  17]+0.125*[#  23]
          +0.125*[#  26]+0.125*[#  32]+0.125*[#  35]
    |psi|^2 = 1.000
==== e(  13) =    10.82135 eV ==== 
     psi = 0.230*[#  17]+0.188*[#  23]+0.188*[#  32]+0.105*[#  26]+0.105*[#  35]
          +0.063*[#  14]+0.060*[#   5]+0.060*[#   8]
    |psi|^2 = 1.000
==== e(  14) =    10.82136 eV ==== 
     psi = 0.189*[#   5]+0.189*[#   8]+0.187*[#  14]+0.145*[#  26]+0.145*[#  35]
          +0.062*[#  23]+0.062*[#  32]+0.020*[#  17]
    |psi|^2 = 1.000
==== e(  15) =    10.84099 eV ==== 
     psi = 0.125*[#   5]+0.125*[#   8]+0.125*[#  14]+0.125*[#  26]+0.125*[#  35]
          +0.125*[#  17]+0.125*[#  23]+0.125*[#  32]
    |psi|^2 = 1.000
==== e(  16) =    10.86064 eV ==== 
     psi = 0.080*[#   6]+0.080*[#   7]+0.080*[#   9]+0.080*[#  15]+0.080*[#  16]
          +0.080*[#  18]+0.080*[#  24]+0.080*[#  25]+0.080*[#  27]+0.080*[#  33]
          +0.080*[#  34]+0.080*[#  36]+0.003*[#   2]+0.003*[#   3]+0.003*[#   4]
          +0.003*[#  11]+0.003*[#  12]+0.003*[#  13]+0.003*[#  20]+0.003*[#  21]
          +0.003*[#  22]+0.003*[#  29]+0.003*[#  30]+0.003*[#  31]
    |psi|^2 = 1.000
==== e(  17) =    10.86064 eV ==== 
     psi = 0.080*[#   6]+0.080*[#   7]+0.080*[#   9]+0.080*[#  15]+0.080*[#  16]
          +0.080*[#  18]+0.080*[#  24]+0.080*[#  25]+0.080*[#  27]+0.080*[#  33]
          +0.080*[#  34]+0.080*[#  36]+0.003*[#   2]+0.003*[#   3]+0.003*[#   4]
          +0.003*[#  11]+0.003*[#  12]+0.003*[#  13]+0.003*[#  20]+0.003*[#  21]
          +0.003*[#  22]+0.003*[#  29]+0.003*[#  30]+0.003*[#  31]
    |psi|^2 = 1.000
==== e(  18) =    10.97589 eV ==== 
     psi = 0.083*[#   6]+0.083*[#   7]+0.083*[#   9]+0.083*[#  15]+0.083*[#  16]
          +0.083*[#  18]+0.083*[#  24]+0.083*[#  25]+0.083*[#  27]+0.083*[#  33]
          +0.083*[#  34]+0.083*[#  36]
    |psi|^2 = 1.000
==== e(  19) =    10.97589 eV ==== 
     psi = 0.083*[#   6]+0.083*[#   7]+0.083*[#   9]+0.083*[#  15]+0.083*[#  16]
          +0.083*[#  18]+0.083*[#  24]+0.083*[#  25]+0.083*[#  27]+0.083*[#  33]
          +0.083*[#  34]+0.083*[#  36]
    |psi|^2 = 1.000
==== e(  20) =    11.01039 eV ==== 
     psi = 0.167*[#  15]+0.167*[#  16]+0.167*[#  25]+0.167*[#  27]+0.167*[#  33]
          +0.167*[#  36]
    |psi|^2 = 1.000
==== e(  21) =    11.01041 eV ==== 
     psi = 0.167*[#   6]+0.167*[#   7]+0.167*[#   9]+0.167*[#  18]+0.167*[#  24]
          +0.167*[#  34]
    |psi|^2 = 1.000
==== e(  22) =    13.41326 eV ==== 
     psi = 0.073*[#   2]+0.073*[#   3]+0.073*[#   4]+0.073*[#  11]+0.073*[#  12]
          +0.073*[#  13]+0.073*[#  20]+0.073*[#  21]+0.073*[#  22]+0.073*[#  29]
          +0.073*[#  30]+0.073*[#  31]+0.024*[#   1]+0.024*[#  10]+0.024*[#  19]
          +0.024*[#  28]+0.004*[#   5]+0.004*[#   8]+0.004*[#  14]+0.004*[#  17]
          +0.004*[#  23]+0.004*[#  26]+0.004*[#  32]+0.004*[#  35]
    |psi|^2 = 0.995
==== e(  23) =    14.15268 eV ==== 
     psi = 0.080*[#   2]+0.080*[#   3]+0.080*[#   4]+0.080*[#  11]+0.080*[#  12]
          +0.080*[#  13]+0.080*[#  20]+0.080*[#  21]+0.080*[#  22]+0.080*[#  29]
          +0.080*[#  30]+0.080*[#  31]+0.003*[#   6]+0.003*[#   7]+0.003*[#   9]
          +0.003*[#  15]+0.003*[#  16]+0.003*[#  18]+0.003*[#  24]+0.003*[#  25]
          +0.003*[#  27]+0.003*[#  33]+0.003*[#  34]+0.003*[#  36]
    |psi|^2 = 0.996
==== e(  24) =    14.15268 eV ==== 
     psi = 0.080*[#   2]+0.080*[#   3]+0.080*[#   4]+0.080*[#  11]+0.080*[#  12]
          +0.080*[#  13]+0.080*[#  20]+0.080*[#  21]+0.080*[#  22]+0.080*[#  29]
          +0.080*[#  30]+0.080*[#  31]+0.003*[#   6]+0.003*[#   7]+0.003*[#   9]
          +0.003*[#  15]+0.003*[#  16]+0.003*[#  18]+0.003*[#  24]+0.003*[#  25]
          +0.003*[#  27]+0.003*[#  33]+0.003*[#  34]+0.003*[#  36]
    |psi|^2 = 0.996
==== e(  25) =    19.50783 eV ==== 
     psi = 0.310*[#   1]+0.176*[#  10]+0.176*[#  19]+0.176*[#  28]+0.012*[#  14]
          +0.010*[#  26]+0.010*[#  35]+0.008*[#  23]+0.008*[#  32]+0.006*[#   5]
          +0.006*[#   8]+0.006*[#  17]+0.004*[#   2]+0.004*[#   3]+0.004*[#   4]
          +0.004*[#  11]+0.004*[#  22]+0.004*[#  30]+0.001*[#  12]+0.001*[#  13]
          +0.001*[#  20]+0.001*[#  21]+0.001*[#  29]+0.001*[#  31]
    |psi|^2 = 0.939
==== e(  26) =    19.50783 eV ==== 
     psi = 0.243*[#  10]+0.243*[#  19]+0.243*[#  28]+0.109*[#   1]+0.010*[#   5]
          +0.010*[#   8]+0.010*[#  17]+0.009*[#  23]+0.009*[#  32]+0.006*[#  26]
          +0.006*[#  35]+0.005*[#  14]+0.004*[#  12]+0.004*[#  13]+0.004*[#  20]
          +0.004*[#  21]+0.004*[#  29]+0.004*[#  31]+0.001*[#   2]+0.001*[#   3]
          +0.001*[#   4]+0.001*[#  11]+0.001*[#  22]+0.001*[#  30]
    |psi|^2 = 0.939

 k =   0.0000000000  0.0000000000  0.1666666667
==== e(   1) =     3.48094 eV ==== 
     psi = 0.145*[#   1]+0.145*[#  10]+0.145*[#  19]+0.145*[#  28]+0.035*[#   2]
          +0.035*[#   3]+0.035*[#   4]+0.035*[#  11]+0.035*[#  12]+0.035*[#  13]
          +0.035*[#  20]+0.035*[#  21]+0.035*[#  22]+0.035*[#  29]+0.035*[#  30]
          +0.035*[#  31]
    |psi|^2 = 1.000
==== e(   2) =     7.62040 eV ==== 
     psi = 0.107*[#   5]+0.107*[#   8]+0.107*[#  14]+0.107*[#  17]+0.107*[#  23]
          +0.107*[#  26]+0.107*[#  32]+0.107*[#  35]+0.024*[#   1]+0.024*[#  10]
          +0.024*[#  19]+0.024*[#  28]+0.004*[#   2]+0.004*[#   3]+0.004*[#   4]
          +0.004*[#  11]+0.004*[#  12]+0.004*[#  13]+0.004*[#  20]+0.004*[#  21]
          +0.004*[#  22]+0.004*[#  29]+0.004*[#  30]+0.004*[#  31]
    |psi|^2 = 0.997
==== e(   3) =     7.79755 eV ==== 
     psi = 0.211*[#  14]+0.174*[#  26]+0.174*[#  35]+0.100*[#  23]+0.100*[#  32]
          +0.064*[#  17]+0.054*[#   5]+0.054*[#   8]+0.024*[#   1]+0.009*[#  10]
          +0.009*[#  19]+0.009*[#  28]+0.003*[#   2]+0.003*[#   3]+0.003*[#   4]
          +0.003*[#  11]+0.003*[#  22]+0.003*[#  30]
    |psi|^2 = 0.999
==== e(   4) =     7.79756 eV ==== 
     psi = 0.179*[#   5]+0.179*[#   8]+0.169*[#  17]+0.132*[#  23]+0.132*[#  32]
          +0.059*[#  26]+0.059*[#  35]+0.022*[#  14]+0.016*[#  10]+0.016*[#  19]
          +0.016*[#  28]+0.003*[#  12]+0.003*[#  13]+0.003*[#  20]+0.003*[#  21]
          +0.003*[#  29]+0.003*[#  31]
    |psi|^2 = 0.999
==== e(   5) =     8.19399 eV ==== 
     psi = 0.083*[#   6]+0.083*[#   7]+0.083*[#   9]+0.083*[#  15]+0.083*[#  16]
          +0.083*[#  18]+0.083*[#  24]+0.083*[#  25]+0.083*[#  27]+0.083*[#  33]
          +0.083*[#  34]+0.083*[#  36]
    |psi|^2 = 0.997
==== e(   6) =     8.19987 eV ==== 
     psi = 0.082*[#   6]+0.082*[#   7]+0.082*[#   9]+0.082*[#  15]+0.082*[#  16]
          +0.082*[#  18]+0.082*[#  24]+0.082*[#  25]+0.082*[#  27]+0.082*[#  33]
          +0.082*[#  34]+0.082*[#  36]+0.001*[#   2]+0.001*[#   3]+0.001*[#   4]
          +0.001*[#  11]+0.001*[#  12]+0.001*[#  13]+0.001*[#  20]+0.001*[#  21]
          +0.001*[#  22]+0.001*[#  29]+0.001*[#  30]+0.001*[#  31]
    |psi|^2 = 0.999
==== e(   7) =     8.19987 eV ==== 
     psi = 0.082*[#   6]+0.082*[#   7]+0.082*[#   9]+0.082*[#  15]+0.082*[#  16]
          +0.082*[#  18]+0.082*[#  24]+0.082*[#  25]+0.082*[#  27]+0.082*[#  33]
          +0.082*[#  34]+0.082*[#  36]+0.001*[#   2]+0.001*[#   3]+0.001*[#   4]
          +0.001*[#  11]+0.001*[#  12]+0.001*[#  13]+0.001*[#  20]+0.001*[#  21]
          +0.001*[#  22]+0.001*[#  29]+0.001*[#  30]+0.001*[#  31]
    |psi|^2 = 0.999
==== e(   8) =     9.39166 eV ==== 
     psi = 0.083*[#   6]+0.083*[#   7]+0.083*[#   9]+0.083*[#  15]+0.083*[#  16]
          +0.083*[#  18]+0.083*[#  24]+0.083*[#  25]+0.083*[#  27]+0.083*[#  33]
          +0.083*[#  34]+0.083*[#  36]
    |psi|^2 = 0.999
==== e(   9) =     9.56806 eV ==== 
     psi = 0.083*[#   6]+0.083*[#   7]+0.083*[#   9]+0.083*[#  15]+0.083*[#  16]
          +0.083*[#  18]+0.083*[#  24]+0.083*[#  25]+0.083*[#  27]+0.083*[#  33]
          +0.083*[#  34]+0.083*[#  36]
    |psi|^2 = 1.000
==== e(  10) =     9.56806 eV ==== 
     psi = 0.083*[#   6]+0.083*[#   7]+0.083*[#   9]+0.083*[#  15]+0.083*[#  16]
          +0.083*[#  18]+0.083*[#  24]+0.083*[#  25]+0.083*[#  27]+0.083*[#  33]
          +0.083*[#  34]+0.083*[#  36]
    |psi|^2 = 1.000
==== e(  11) =    10.21753 eV ==== 
     psi = 0.125*[#   5]+0.125*[#   8]+0.125*[#  14]+0.125*[#  17]+0.125*[#  23]
          +0.125*[#  26]+0.125*[#  32]+0.125*[#  35]
    |psi|^2 = 1.000
==== e(  12) =    10.34082 eV ==== 
     psi = 0.125*[#   5]+0.125*[#   8]+0.125*[#  14]+0.125*[#  17]+0.125*[#  23]
          +0.125*[#  26]+0.125*[#  32]+0.125*[#  35]
    |psi|^2 = 1.000
==== e(  13) =    10.50849 eV ==== 
     psi = 0.076*[#   6]+0.076*[#   7]+0.076*[#   9]+0.076*[#  15]+0.076*[#  16]
          +0.076*[#  18]+0.076*[#  24]+0.076*[#  25]+0.076*[#  27]+0.076*[#  33]
          +0.076*[#  34]+0.076*[#  36]+0.007*[#   2]+0.007*[#   3]+0.007*[#   4]
          +0.007*[#  11]+0.007*[#  12]+0.007*[#  13]+0.007*[#  20]+0.007*[#  21]
          +0.007*[#  22]+0.007*[#  29]+0.007*[#  30]+0.007*[#  31]
    |psi|^2 = 1.000
==== e(  14) =    10.50849 eV ==== 
     psi = 0.076*[#   6]+0.076*[#   7]+0.076*[#   9]+0.076*[#  15]+0.076*[#  16]
          +0.076*[#  18]+0.076*[#  24]+0.076*[#  25]+0.076*[#  27]+0.076*[#  33]
          +0.076*[#  34]+0.076*[#  36]+0.007*[#   2]+0.007*[#   3]+0.007*[#   4]
          +0.007*[#  11]+0.007*[#  12]+0.007*[#  13]+0.007*[#  20]+0.007*[#  21]
          +0.007*[#  22]+0.007*[#  29]+0.007*[#  30]+0.007*[#  31]
    |psi|^2 = 1.000
==== e(  15) =    10.73659 eV ==== 
     psi = 0.231*[#  17]+0.190*[#  23]+0.190*[#  32]+0.107*[#  26]+0.107*[#  35]
          +0.065*[#  14]+0.054*[#   5]+0.054*[#   8]
    |psi|^2 = 1.000
==== e(  16) =    10.73660 eV ==== 
     psi = 0.196*[#   5]+0.196*[#   8]+0.184*[#  14]+0.143*[#  26]+0.143*[#  35]
          +0.060*[#  23]+0.060*[#  32]+0.018*[#  17]
    |psi|^2 = 1.000
==== e(  17) =    10.81319 eV ==== 
     psi = 0.125*[#   5]+0.125*[#   8]+0.125*[#  14]+0.125*[#  17]+0.125*[#  23]
          +0.125*[#  26]+0.125*[#  32]+0.125*[#  35]
    |psi|^2 = 1.000
==== e(  18) =    10.87729 eV ==== 
     psi = 0.083*[#   6]+0.083*[#   7]+0.083*[#   9]+0.083*[#  15]+0.083*[#  16]
          +0.083*[#  18]+0.083*[#  24]+0.083*[#  25]+0.083*[#  27]+0.083*[#  33]
          +0.083*[#  34]+0.083*[#  36]
    |psi|^2 = 1.000
==== e(  19) =    10.87729 eV ==== 
     psi = 0.083*[#   6]+0.083*[#   7]+0.083*[#   9]+0.083*[#  15]+0.083*[#  16]
          +0.083*[#  18]+0.083*[#  24]+0.083*[#  25]+0.083*[#  27]+0.083*[#  33]
          +0.083*[#  34]+0.083*[#  36]
    |psi|^2 = 1.000
==== e(  20) =    11.01053 eV ==== 
     psi = 0.167*[#  15]+0.167*[#  16]+0.167*[#  25]+0.167*[#  27]+0.167*[#  33]
          +0.167*[#  36]
    |psi|^2 = 1.000
==== e(  21) =    11.01055 eV ==== 
     psi = 0.167*[#   6]+0.167*[#   7]+0.167*[#   9]+0.167*[#  18]+0.167*[#  24]
          +0.167*[#  34]
    |psi|^2 = 1.000
==== e(  22) =    12.33346 eV ==== 
     psi = 0.059*[#   2]+0.059*[#   3]+0.059*[#   4]+0.059*[#  11]+0.059*[#  12]
          +0.059*[#  13]+0.059*[#  20]+0.059*[#  21]+0.059*[#  22]+0.059*[#  29]
          +0.059*[#  30]+0.059*[#  31]+0.044*[#   1]+0.044*[#  10]+0.044*[#  19]
          +0.044*[#  28]+0.014*[#   5]+0.014*[#   8]+0.014*[#  14]+0.014*[#  17]
          +0.014*[#  23]+0.014*[#  26]+0.014*[#  32]+0.014*[#  35]
    |psi|^2 = 0.997
==== e(  23) =    14.72895 eV ==== 
     psi = 0.076*[#   2]+0.076*[#   3]+0.076*[#   4]+0.076*[#  11]+0.076*[#  12]
          +0.076*[#  13]+0.076*[#  20]+0.076*[#  21]+0.076*[#  22]+0.076*[#  29]
          +0.076*[#  30]+0.076*[#  31]+0.007*[#   6]+0.007*[#   7]+0.007*[#   9]
          +0.007*[#  15]+0.007*[#  16]+0.007*[#  18]+0.007*[#  24]+0.007*[#  25]
          +0.007*[#  27]+0.007*[#  33]+0.007*[#  34]+0.007*[#  36]
    |psi|^2 = 0.995
==== e(  24) =    14.72895 eV ==== 
     psi = 0.076*[#   2]+0.076*[#   3]+0.076*[#   4]+0.076*[#  11]+0.076*[#  12]
          +0.076*[#  13]+0.076*[#  20]+0.076*[#  21]+0.076*[#  22]+0.076*[#  29]
          +0.076*[#  30]+0.076*[#  31]+0.007*[#   6]+0.007*[#   7]+0.007*[#   9]
          +0.007*[#  15]+0.007*[#  16]+0.007*[#  18]+0.007*[#  24]+0.007*[#  25]
          +0.007*[#  27]+0.007*[#  33]+0.007*[#  34]+0.007*[#  36]
    |psi|^2 = 0.995
==== e(  25) =    19.60338 eV ==== 
     psi = 0.250*[#   1]+0.179*[#  10]+0.179*[#  19]+0.179*[#  28]+0.011*[#   2]
          +0.011*[#   3]+0.011*[#   4]+0.011*[#  11]+0.011*[#  22]+0.011*[#  30]
          +0.010*[#  14]+0.009*[#  26]+0.009*[#  35]+0.008*[#  23]+0.008*[#  32]
          +0.007*[#  17]+0.007*[#   5]+0.007*[#   8]+0.007*[#  12]+0.007*[#  13]
          +0.007*[#  20]+0.007*[#  21]+0.007*[#  29]+0.007*[#  31]
    |psi|^2 = 0.961
==== e(  26) =    19.60338 eV ==== 
     psi = 0.215*[#  10]+0.215*[#  19]+0.215*[#  28]+0.144*[#   1]+0.011*[#  12]
          +0.011*[#  13]+0.011*[#  20]+0.011*[#  21]+0.011*[#  29]+0.011*[#  31]
          +0.009*[#   5]+0.009*[#   8]+0.009*[#  17]+0.009*[#  23]+0.009*[#  32]
          +0.007*[#  26]+0.007*[#  35]+0.007*[#   2]+0.007*[#   3]+0.007*[#   4]
          +0.007*[#  11]+0.007*[#  22]+0.007*[#  30]+0.006*[#  14]
    |psi|^2 = 0.961

 k =   0.0000000000  0.0000000000  0.2500000000
==== e(   1) =     3.89017 eV ==== 
     psi = 0.100*[#   1]+0.100*[#  10]+0.100*[#  19]+0.100*[#  28]+0.050*[#   2]
          +0.050*[#   3]+0.050*[#   4]+0.050*[#  11]+0.050*[#  12]+0.050*[#  13]
          +0.050*[#  20]+0.050*[#  21]+0.050*[#  22]+0.050*[#  29]+0.050*[#  30]
          +0.050*[#  31]
    |psi|^2 = 1.000
==== e(   2) =     7.51493 eV ==== 
     psi = 0.089*[#   5]+0.089*[#   8]+0.089*[#  14]+0.089*[#  17]+0.089*[#  23]
          +0.089*[#  26]+0.089*[#  32]+0.089*[#  35]+0.033*[#   1]+0.033*[#  10]
          +0.033*[#  19]+0.033*[#  28]+0.013*[#   2]+0.013*[#   3]+0.013*[#   4]
          +0.013*[#  11]+0.013*[#  12]+0.013*[#  13]+0.013*[#  20]+0.013*[#  21]
          +0.013*[#  22]+0.013*[#  29]+0.013*[#  30]+0.013*[#  31]
    |psi|^2 = 0.998
==== e(   3) =     7.96529 eV ==== 
     psi = 0.220*[#  14]+0.181*[#  26]+0.181*[#  35]+0.103*[#  23]+0.103*[#  32]
          +0.064*[#  17]+0.040*[#   5]+0.040*[#   8]+0.018*[#   1]+0.006*[#  10]
          +0.006*[#  19]+0.006*[#  28]+0.005*[#   2]+0.005*[#   3]+0.005*[#   4]
          +0.005*[#  11]+0.005*[#  22]+0.005*[#  30]
    |psi|^2 = 0.999
==== e(   4) =     7.96530 eV ==== 
     psi = 0.193*[#   5]+0.193*[#   8]+0.169*[#  17]+0.130*[#  23]+0.130*[#  32]
          +0.052*[#  26]+0.052*[#  35]+0.013*[#  14]+0.012*[#  10]+0.012*[#  19]
          +0.012*[#  28]+0.005*[#  12]+0.005*[#  13]+0.005*[#  20]+0.005*[#  21]
          +0.005*[#  29]+0.005*[#  31]
    |psi|^2 = 0.999
==== e(   5) =     8.29922 eV ==== 
     psi = 0.083*[#   6]+0.083*[#   7]+0.083*[#   9]+0.083*[#  15]+0.083*[#  16]
          +0.083*[#  18]+0.083*[#  24]+0.083*[#  25]+0.083*[#  27]+0.083*[#  33]
          +0.083*[#  34]+0.083*[#  36]
    |psi|^2 = 0.997
==== e(   6) =     8.31876 eV ==== 
     psi = 0.081*[#   6]+0.081*[#   7]+0.081*[#   9]+0.081*[#  15]+0.081*[#  16]
          +0.081*[#  18]+0.081*[#  24]+0.081*[#  25]+0.081*[#  27]+0.081*[#  33]
          +0.081*[#  34]+0.081*[#  36]+0.002*[#   2]+0.002*[#   3]+0.002*[#   4]
          +0.002*[#  11]+0.002*[#  12]+0.002*[#  13]+0.002*[#  20]+0.002*[#  21]
          +0.002*[#  22]+0.002*[#  29]+0.002*[#  30]+0.002*[#  31]
    |psi|^2 = 0.999
==== e(   7) =     8.31876 eV ==== 
     psi = 0.081*[#   6]+0.081*[#   7]+0.081*[#   9]+0.081*[#  15]+0.081*[#  16]
          +0.081*[#  18]+0.081*[#  24]+0.081*[#  25]+0.081*[#  27]+0.081*[#  33]
          +0.081*[#  34]+0.081*[#  36]+0.002*[#   2]+0.002*[#   3]+0.002*[#   4]
          +0.002*[#  11]+0.002*[#  12]+0.002*[#  13]+0.002*[#  20]+0.002*[#  21]
          +0.002*[#  22]+0.002*[#  29]+0.002*[#  30]+0.002*[#  31]
    |psi|^2 = 0.999
==== e(   8) =     9.27696 eV ==== 
     psi = 0.083*[#   6]+0.083*[#   7]+0.083*[#   9]+0.083*[#  15]+0.083*[#  16]
          +0.083*[#  18]+0.083*[#  24]+0.083*[#  25]+0.083*[#  27]+0.083*[#  33]
          +0.083*[#  34]+0.083*[#  36]
    |psi|^2 = 0.999
==== e(   9) =     9.66490 eV ==== 
     psi = 0.083*[#   6]+0.083*[#   7]+0.083*[#   9]+0.083*[#  15]+0.083*[#  16]
          +0.083*[#  18]+0.083*[#  24]+0.083*[#  25]+0.083*[#  27]+0.083*[#  33]
          +0.083*[#  34]+0.083*[#  36]
    |psi|^2 = 1.000
==== e(  10) =     9.66490 eV ==== 
     psi = 0.083*[#   6]+0.083*[#   7]+0.083*[#   9]+0.083*[#  15]+0.083*[#  16]
          +0.083*[#  18]+0.083*[#  24]+0.083*[#  25]+0.083*[#  27]+0.083*[#  33]
          +0.083*[#  34]+0.083*[#  36]
    |psi|^2 = 1.000
==== e(  11) =    10.09148 eV ==== 
     psi = 0.074*[#   6]+0.074*[#   7]+0.074*[#   9]+0.074*[#  15]+0.074*[#  16]
          +0.074*[#  18]+0.074*[#  24]+0.074*[#  25]+0.074*[#  27]+0.074*[#  33]
          +0.074*[#  34]+0.074*[#  36]+0.009*[#   2]+0.009*[#   3]+0.009*[#   4]
          +0.009*[#  11]+0.009*[#  12]+0.009*[#  13]+0.009*[#  20]+0.009*[#  21]
          +0.009*[#  22]+0.009*[#  29]+0.009*[#  30]+0.009*[#  31]
    |psi|^2 = 0.999
==== e(  12) =    10.09148 eV ==== 
     psi = 0.074*[#   6]+0.074*[#   7]+0.074*[#   9]+0.074*[#  15]+0.074*[#  16]
          +0.074*[#  18]+0.074*[#  24]+0.074*[#  25]+0.074*[#  27]+0.074*[#  33]
          +0.074*[#  34]+0.074*[#  36]+0.009*[#   2]+0.009*[#   3]+0.009*[#   4]
          +0.009*[#  11]+0.009*[#  12]+0.009*[#  13]+0.009*[#  20]+0.009*[#  21]
          +0.009*[#  22]+0.009*[#  29]+0.009*[#  30]+0.009*[#  31]
    |psi|^2 = 0.999
==== e(  13) =    10.11831 eV ==== 
     psi = 0.125*[#   5]+0.125*[#   8]+0.125*[#  14]+0.125*[#  17]+0.125*[#  23]
          +0.125*[#  26]+0.125*[#  32]+0.125*[#  35]
    |psi|^2 = 1.000
==== e(  14) =    10.38341 eV ==== 
     psi = 0.125*[#   5]+0.125*[#   8]+0.125*[#  14]+0.125*[#  17]+0.125*[#  23]
          +0.125*[#  26]+0.125*[#  32]+0.125*[#  35]
    |psi|^2 = 1.000
==== e(  15) =    10.60618 eV ==== 
     psi = 0.235*[#  17]+0.193*[#  23]+0.193*[#  32]+0.110*[#  26]+0.110*[#  35]
          +0.069*[#  14]+0.042*[#   5]+0.042*[#   8]
    |psi|^2 = 1.000
==== e(  16) =    10.60619 eV ==== 
     psi = 0.206*[#   5]+0.206*[#   8]+0.180*[#  14]+0.138*[#  26]+0.138*[#  35]
          +0.056*[#  23]+0.056*[#  32]+0.014*[#  17]
    |psi|^2 = 1.000
==== e(  17) =    10.72735 eV ==== 
     psi = 0.083*[#   6]+0.083*[#   7]+0.083*[#   9]+0.083*[#  15]+0.083*[#  16]
          +0.083*[#  18]+0.083*[#  24]+0.083*[#  25]+0.083*[#  27]+0.083*[#  33]
          +0.083*[#  34]+0.083*[#  36]
    |psi|^2 = 1.000
==== e(  18) =    10.72735 eV ==== 
     psi = 0.083*[#   6]+0.083*[#   7]+0.083*[#   9]+0.083*[#  15]+0.083*[#  16]
          +0.083*[#  18]+0.083*[#  24]+0.083*[#  25]+0.083*[#  27]+0.083*[#  33]
          +0.083*[#  34]+0.083*[#  36]
    |psi|^2 = 1.000
==== e(  19) =    10.76910 eV ==== 
     psi = 0.125*[#   5]+0.125*[#   8]+0.125*[#  14]+0.125*[#  17]+0.125*[#  23]
          +0.125*[#  26]+0.125*[#  32]+0.125*[#  35]
    |psi|^2 = 1.000
==== e(  20) =    11.01074 eV ==== 
     psi = 0.167*[#  15]+0.167*[#  16]+0.167*[#  25]+0.167*[#  27]+0.167*[#  33]
          +0.167*[#  36]
    |psi|^2 = 1.000
==== e(  21) =    11.01075 eV ==== 
     psi = 0.167*[#   6]+0.167*[#   7]+0.167*[#   9]+0.167*[#  18]+0.167*[#  24]
          +0.167*[#  34]
    |psi|^2 = 1.000
==== e(  22) =    11.23126 eV ==== 
     psi = 0.048*[#   2]+0.048*[#   3]+0.048*[#   4]+0.048*[#  11]+0.048*[#  12]
          +0.048*[#  13]+0.048*[#  20]+0.048*[#  21]+0.048*[#  22]+0.048*[#  29]
          +0.048*[#  30]+0.048*[#  31]+0.036*[#   1]+0.036*[#  10]+0.036*[#  19]
          +0.036*[#  28]+0.034*[#   5]+0.034*[#   8]+0.034*[#  14]+0.034*[#  17]
          +0.034*[#  23]+0.034*[#  26]+0.034*[#  32]+0.034*[#  35]
    |psi|^2 = 0.999
==== e(  23) =    15.51783 eV ==== 
     psi = 0.074*[#   2]+0.074*[#   3]+0.074*[#   4]+0.074*[#  11]+0.074*[#  12]
          +0.074*[#  13]+0.074*[#  20]+0.074*[#  21]+0.074*[#  22]+0.074*[#  29]
          +0.074*[#  30]+0.074*[#  31]+0.009*[#   6]+0.009*[#   7]+0.009*[#   9]
          +0.009*[#  15]+0.009*[#  16]+0.009*[#  18]+0.009*[#  24]+0.009*[#  25]
          +0.009*[#  27]+0.009*[#  33]+0.009*[#  34]+0.009*[#  36]
    |psi|^2 = 0.993
==== e(  24) =    15.51783 eV ==== 
     psi = 0.074*[#   2]+0.074*[#   3]+0.074*[#   4]+0.074*[#  11]+0.074*[#  12]
          +0.074*[#  13]+0.074*[#  20]+0.074*[#  21]+0.074*[#  22]+0.074*[#  29]
          +0.074*[#  30]+0.074*[#  31]+0.009*[#   6]+0.009*[#   7]+0.009*[#   9]
          +0.009*[#  15]+0.009*[#  16]+0.009*[#  18]+0.009*[#  24]+0.009*[#  25]
          +0.009*[#  27]+0.009*[#  33]+0.009*[#  34]+0.009*[#  36]
    |psi|^2 = 0.993
==== e(  25) =    19.77224 eV ==== 
     psi = 0.355*[#   1]+0.118*[#  10]+0.118*[#  19]+0.118*[#  28]+0.033*[#   2]
          +0.033*[#   3]+0.033*[#   4]+0.033*[#  11]+0.033*[#  22]+0.033*[#  30]
          +0.015*[#  14]+0.012*[#  26]+0.012*[#  35]+0.007*[#  23]+0.007*[#  32]
          +0.004*[#  17]+0.003*[#   5]+0.003*[#   8]
    |psi|^2 = 0.969
==== e(  26) =    19.77225 eV ==== 
     psi = 0.237*[#  10]+0.237*[#  19]+0.237*[#  28]+0.033*[#  12]+0.033*[#  13]
          +0.033*[#  20]+0.033*[#  21]+0.033*[#  29]+0.033*[#  31]+0.013*[#   5]
          +0.013*[#   8]+0.012*[#  17]+0.009*[#  23]+0.009*[#  32]+0.004*[#  26]
          +0.004*[#  35]+0.001*[#  14]
    |psi|^2 = 0.969

 k =   0.0000000000  0.0000000000  0.3333333333
==== e(   1) =     4.44765 eV ==== 
     psi = 0.074*[#   1]+0.074*[#  10]+0.074*[#  19]+0.074*[#  28]+0.058*[#   2]
          +0.058*[#   3]+0.058*[#   4]+0.058*[#  11]+0.058*[#  12]+0.058*[#  13]
          +0.058*[#  20]+0.058*[#  21]+0.058*[#  22]+0.058*[#  29]+0.058*[#  30]
          +0.058*[#  31]+0.001*[#   5]+0.001*[#   8]+0.001*[#  14]+0.001*[#  17]
          +0.001*[#  23]+0.001*[#  26]+0.001*[#  32]+0.001*[#  35]
    |psi|^2 = 1.000
==== e(   2) =     7.21407 eV ==== 
     psi = 0.057*[#   5]+0.057*[#   8]+0.057*[#  14]+0.057*[#  17]+0.057*[#  23]
          +0.057*[#  26]+0.057*[#  32]+0.057*[#  35]+0.040*[#   1]+0.040*[#  10]
          +0.040*[#  19]+0.040*[#  28]+0.032*[#   2]+0.032*[#   3]+0.032*[#   4]
          +0.032*[#  11]+0.032*[#  12]+0.032*[#  13]+0.032*[#  20]+0.032*[#  21]
          +0.032*[#  22]+0.032*[#  29]+0.032*[#  30]+0.032*[#  31]
    |psi|^2 = 0.999
==== e(   3) =     8.15577 eV ==== 
     psi = 0.225*[#  14]+0.186*[#  26]+0.186*[#  35]+0.108*[#  23]+0.108*[#  32]
          +0.069*[#  17]+0.025*[#   5]+0.025*[#   8]+0.010*[#   1]+0.008*[#   2]
          +0.008*[#   3]+0.008*[#   4]+0.008*[#  11]+0.008*[#  22]+0.008*[#  30]
          +0.003*[#  10]+0.003*[#  19]+0.003*[#  28]
    |psi|^2 = 0.999
==== e(   4) =     8.15578 eV ==== 
     psi = 0.208*[#   5]+0.208*[#   8]+0.164*[#  17]+0.125*[#  23]+0.125*[#  32]
          +0.047*[#  26]+0.047*[#  35]+0.008*[#  14]+0.008*[#  12]+0.008*[#  13]
          +0.008*[#  20]+0.008*[#  21]+0.008*[#  29]+0.008*[#  31]+0.007*[#  10]
          +0.007*[#  19]+0.007*[#  28]
    |psi|^2 = 0.999
==== e(   5) =     8.43774 eV ==== 
     psi = 0.083*[#   6]+0.083*[#   7]+0.083*[#   9]+0.083*[#  15]+0.083*[#  16]
          +0.083*[#  18]+0.083*[#  24]+0.083*[#  25]+0.083*[#  27]+0.083*[#  33]
          +0.083*[#  34]+0.083*[#  36]
    |psi|^2 = 0.997
==== e(   6) =     8.48763 eV ==== 
     psi = 0.080*[#   6]+0.080*[#   7]+0.080*[#   9]+0.080*[#  15]+0.080*[#  16]
          +0.080*[#  18]+0.080*[#  24]+0.080*[#  25]+0.080*[#  27]+0.080*[#  33]
          +0.080*[#  34]+0.080*[#  36]+0.003*[#   2]+0.003*[#   3]+0.003*[#   4]
          +0.003*[#  11]+0.003*[#  12]+0.003*[#  13]+0.003*[#  20]+0.003*[#  21]
          +0.003*[#  22]+0.003*[#  29]+0.003*[#  30]+0.003*[#  31]
    |psi|^2 = 0.999
==== e(   7) =     8.48763 eV ==== 
     psi = 0.080*[#   6]+0.080*[#   7]+0.080*[#   9]+0.080*[#  15]+0.080*[#  16]
          +0.080*[#  18]+0.080*[#  24]+0.080*[#  25]+0.080*[#  27]+0.080*[#  33]
          +0.080*[#  34]+0.080*[#  36]+0.003*[#   2]+0.003*[#   3]+0.003*[#   4]
          +0.003*[#  11]+0.003*[#  12]+0.003*[#  13]+0.003*[#  20]+0.003*[#  21]
          +0.003*[#  22]+0.003*[#  29]+0.003*[#  30]+0.003*[#  31]
    |psi|^2 = 0.999
==== e(   8) =     9.12899 eV ==== 
     psi = 0.083*[#   6]+0.083*[#   7]+0.083*[#   9]+0.083*[#  15]+0.083*[#  16]
          +0.083*[#  18]+0.083*[#  24]+0.083*[#  25]+0.083*[#  27]+0.083*[#  33]
          +0.083*[#  34]+0.083*[#  36]
    |psi|^2 = 0.999
==== e(   9) =     9.68120 eV ==== 
     psi = 0.075*[#   6]+0.075*[#   7]+0.075*[#   9]+0.075*[#  15]+0.075*[#  16]
          +0.075*[#  18]+0.075*[#  24]+0.075*[#  25]+0.075*[#  27]+0.075*[#  33]
          +0.075*[#  34]+0.075*[#  36]+0.009*[#   2]+0.009*[#   3]+0.009*[#   4]
          +0.009*[#  11]+0.009*[#  12]+0.009*[#  13]+0.009*[#  20]+0.009*[#  21]
          +0.009*[#  22]+0.009*[#  29]+0.009*[#  30]+0.009*[#  31]
    |psi|^2 = 0.999
==== e(  10) =     9.68120 eV ==== 
     psi = 0.075*[#   6]+0.075*[#   7]+0.075*[#   9]+0.075*[#  15]+0.075*[#  16]
          +0.075*[#  18]+0.075*[#  24]+0.075*[#  25]+0.075*[#  27]+0.075*[#  33]
          +0.075*[#  34]+0.075*[#  36]+0.009*[#   2]+0.009*[#   3]+0.009*[#   4]
          +0.009*[#  11]+0.009*[#  12]+0.009*[#  13]+0.009*[#  20]+0.009*[#  21]
          +0.009*[#  22]+0.009*[#  29]+0.009*[#  30]+0.009*[#  31]
    |psi|^2 = 0.999
==== e(  11) =     9.79666 eV ==== 
     psi = 0.083*[#   6]+0.083*[#   7]+0.083*[#   9]+0.083*[#  15]+0.083*[#  16]
          +0.083*[#  18]+0.083*[#  24]+0.083*[#  25]+0.083*[#  27]+0.083*[#  33]
          +0.083*[#  34]+0.083*[#  36]
    |psi|^2 = 0.999
==== e(  12) =     9.79666 eV ==== 
     psi = 0.083*[#   6]+0.083*[#   7]+0.083*[#   9]+0.083*[#  15]+0.083*[#  16]
          +0.083*[#  18]+0.083*[#  24]+0.083*[#  25]+0.083*[#  27]+0.083*[#  33]
          +0.083*[#  34]+0.083*[#  36]
    |psi|^2 = 0.999
==== e(  13) =    10.00062 eV ==== 
     psi = 0.124*[#   5]+0.124*[#   8]+0.124*[#  14]+0.124*[#  17]+0.124*[#  23]
          +0.124*[#  26]+0.124*[#  32]+0.124*[#  35]
    |psi|^2 = 1.000
==== e(  14) =    10.39642 eV ==== 
     psi = 0.067*[#   5]+0.067*[#   8]+0.067*[#  14]+0.067*[#  17]+0.067*[#  23]
          +0.067*[#  26]+0.067*[#  32]+0.067*[#  35]+0.032*[#   2]+0.032*[#   3]
          +0.032*[#   4]+0.032*[#  11]+0.032*[#  12]+0.032*[#  13]+0.032*[#  20]
          +0.032*[#  21]+0.032*[#  22]+0.032*[#  29]+0.032*[#  30]+0.032*[#  31]
          +0.019*[#   1]+0.019*[#  10]+0.019*[#  19]+0.019*[#  28]
    |psi|^2 = 0.999
==== e(  15) =    10.43914 eV ==== 
     psi = 0.125*[#   5]+0.125*[#   8]+0.125*[#  14]+0.125*[#  17]+0.125*[#  23]
          +0.125*[#  26]+0.125*[#  32]+0.125*[#  35]
    |psi|^2 = 1.000
==== e(  16) =    10.45271 eV ==== 
     psi = 0.239*[#  17]+0.198*[#  23]+0.198*[#  32]+0.115*[#  26]+0.115*[#  35]
          +0.074*[#  14]+0.026*[#   5]+0.026*[#   8]+0.002*[#  10]+0.002*[#  19]
          +0.002*[#  28]
    |psi|^2 = 1.000
==== e(  17) =    10.45272 eV ==== 
     psi = 0.222*[#   5]+0.222*[#   8]+0.174*[#  14]+0.133*[#  26]+0.133*[#  35]
          +0.050*[#  23]+0.050*[#  32]+0.009*[#  17]+0.002*[#   1]
    |psi|^2 = 1.000
==== e(  18) =    10.54347 eV ==== 
     psi = 0.083*[#   6]+0.083*[#   7]+0.083*[#   9]+0.083*[#  15]+0.083*[#  16]
          +0.083*[#  18]+0.083*[#  24]+0.083*[#  25]+0.083*[#  27]+0.083*[#  33]
          +0.083*[#  34]+0.083*[#  36]
    |psi|^2 = 1.000
==== e(  19) =    10.54347 eV ==== 
     psi = 0.083*[#   6]+0.083*[#   7]+0.083*[#   9]+0.083*[#  15]+0.083*[#  16]
          +0.083*[#  18]+0.083*[#  24]+0.083*[#  25]+0.083*[#  27]+0.083*[#  33]
          +0.083*[#  34]+0.083*[#  36]
    |psi|^2 = 1.000
==== e(  20) =    10.71187 eV ==== 
     psi = 0.125*[#   5]+0.125*[#   8]+0.125*[#  14]+0.125*[#  17]+0.125*[#  23]
          +0.125*[#  26]+0.125*[#  32]+0.125*[#  35]
    |psi|^2 = 1.000
==== e(  21) =    11.01092 eV ==== 
     psi = 0.167*[#  15]+0.167*[#  16]+0.167*[#  25]+0.167*[#  27]+0.167*[#  33]
          +0.167*[#  36]
    |psi|^2 = 1.000
==== e(  22) =    11.01094 eV ==== 
     psi = 0.167*[#   6]+0.167*[#   7]+0.167*[#   9]+0.167*[#  18]+0.167*[#  24]
          +0.167*[#  34]
    |psi|^2 = 1.000
==== e(  23) =    16.44530 eV ==== 
     psi = 0.074*[#   2]+0.074*[#   3]+0.074*[#   4]+0.074*[#  11]+0.074*[#  12]
          +0.074*[#  13]+0.074*[#  20]+0.074*[#  21]+0.074*[#  22]+0.074*[#  29]
          +0.074*[#  30]+0.074*[#  31]+0.009*[#   6]+0.009*[#   7]+0.009*[#   9]
          +0.009*[#  15]+0.009*[#  16]+0.009*[#  18]+0.009*[#  24]+0.009*[#  25]
          +0.009*[#  27]+0.009*[#  33]+0.009*[#  34]+0.009*[#  36]
    |psi|^2 = 0.989
==== e(  24) =    16.44530 eV ==== 
     psi = 0.074*[#   2]+0.074*[#   3]+0.074*[#   4]+0.074*[#  11]+0.074*[#  12]
          +0.074*[#  13]+0.074*[#  20]+0.074*[#  21]+0.074*[#  22]+0.074*[#  29]
          +0.074*[#  30]+0.074*[#  31]+0.009*[#   6]+0.009*[#   7]+0.009*[#   9]
          +0.009*[#  15]+0.009*[#  16]+0.009*[#  18]+0.009*[#  24]+0.009*[#  25]
          +0.009*[#  27]+0.009*[#  33]+0.009*[#  34]+0.009*[#  36]
    |psi|^2 = 0.989
==== e(  25) =    20.02726 eV ==== 
     psi = 0.299*[#   1]+0.100*[#  10]+0.100*[#  19]+0.100*[#  28]+0.051*[#   2]
          +0.051*[#   3]+0.051*[#   4]+0.051*[#  11]+0.051*[#  22]+0.051*[#  30]
          +0.014*[#  14]+0.011*[#  26]+0.011*[#  35]+0.006*[#  23]+0.006*[#  32]
          +0.004*[#  17]+0.003*[#   5]+0.003*[#   8]
    |psi|^2 = 0.964
==== e(  26) =    20.02726 eV ==== 
     psi = 0.200*[#  10]+0.200*[#  19]+0.200*[#  28]+0.051*[#  12]+0.051*[#  13]
          +0.051*[#  20]+0.051*[#  21]+0.051*[#  29]+0.051*[#  31]+0.012*[#   5]
          +0.012*[#   8]+0.011*[#  17]+0.008*[#  23]+0.008*[#  32]+0.003*[#  26]
          +0.003*[#  35]
    |psi|^2 = 0.964

 k =   0.0000000000  0.0000000000  0.4166666667
==== e(   1) =     5.13077 eV ==== 
     psi = 0.061*[#   2]+0.061*[#   3]+0.061*[#   4]+0.061*[#  11]+0.061*[#  12]
          +0.061*[#  13]+0.061*[#  20]+0.061*[#  21]+0.061*[#  22]+0.061*[#  29]
          +0.061*[#  30]+0.061*[#  31]+0.060*[#   1]+0.060*[#  10]+0.060*[#  19]
          +0.060*[#  28]+0.003*[#   5]+0.003*[#   8]+0.003*[#  14]+0.003*[#  17]
          +0.003*[#  23]+0.003*[#  26]+0.003*[#  32]+0.003*[#  35]
    |psi|^2 = 0.999
==== e(   2) =     6.64067 eV ==== 
     psi = 0.051*[#   2]+0.051*[#   3]+0.051*[#   4]+0.051*[#  11]+0.051*[#  12]
          +0.051*[#  13]+0.051*[#  20]+0.051*[#  21]+0.051*[#  22]+0.051*[#  29]
          +0.051*[#  30]+0.051*[#  31]+0.045*[#   1]+0.045*[#  10]+0.045*[#  19]
          +0.045*[#  28]+0.025*[#   5]+0.025*[#   8]+0.025*[#  14]+0.025*[#  17]
          +0.025*[#  23]+0.025*[#  26]+0.025*[#  32]+0.025*[#  35]
    |psi|^2 = 0.999
==== e(   3) =     8.31643 eV ==== 
     psi = 0.231*[#  14]+0.192*[#  26]+0.192*[#  35]+0.114*[#  23]+0.114*[#  32]
          +0.075*[#  17]+0.009*[#   2]+0.009*[#   3]+0.009*[#   4]+0.009*[#  11]
          +0.009*[#  22]+0.009*[#  30]+0.008*[#   5]+0.008*[#   8]+0.003*[#   1]
          
    |psi|^2 = 0.999
==== e(   4) =     8.31644 eV ==== 
     psi = 0.226*[#   5]+0.226*[#   8]+0.159*[#  17]+0.120*[#  23]+0.120*[#  32]
          +0.042*[#  26]+0.042*[#  35]+0.009*[#  12]+0.009*[#  13]+0.009*[#  20]
          +0.009*[#  21]+0.009*[#  29]+0.009*[#  31]+0.003*[#  14]+0.002*[#  10]
          +0.002*[#  19]+0.002*[#  28]
    |psi|^2 = 0.999
==== e(   5) =     8.60101 eV ==== 
     psi = 0.083*[#   6]+0.083*[#   7]+0.083*[#   9]+0.083*[#  15]+0.083*[#  16]
          +0.083*[#  18]+0.083*[#  24]+0.083*[#  25]+0.083*[#  27]+0.083*[#  33]
          +0.083*[#  34]+0.083*[#  36]
    |psi|^2 = 0.998
==== e(   6) =     8.70823 eV ==== 
     psi = 0.079*[#   6]+0.079*[#   7]+0.079*[#   9]+0.079*[#  15]+0.079*[#  16]
          +0.079*[#  18]+0.079*[#  24]+0.079*[#  25]+0.079*[#  27]+0.079*[#  33]
          +0.079*[#  34]+0.079*[#  36]+0.005*[#   2]+0.005*[#   3]+0.005*[#   4]
          +0.005*[#  11]+0.005*[#  12]+0.005*[#  13]+0.005*[#  20]+0.005*[#  21]
          +0.005*[#  22]+0.005*[#  29]+0.005*[#  30]+0.005*[#  31]
    |psi|^2 = 0.999
==== e(   7) =     8.70823 eV ==== 
     psi = 0.079*[#   6]+0.079*[#   7]+0.079*[#   9]+0.079*[#  15]+0.079*[#  16]
          +0.079*[#  18]+0.079*[#  24]+0.079*[#  25]+0.079*[#  27]+0.079*[#  33]
          +0.079*[#  34]+0.079*[#  36]+0.005*[#   2]+0.005*[#   3]+0.005*[#   4]
          +0.005*[#  11]+0.005*[#  12]+0.005*[#  13]+0.005*[#  20]+0.005*[#  21]
          +0.005*[#  22]+0.005*[#  29]+0.005*[#  30]+0.005*[#  31]
    |psi|^2 = 0.999
==== e(   8) =     8.95877 eV ==== 
     psi = 0.083*[#   6]+0.083*[#   7]+0.083*[#   9]+0.083*[#  15]+0.083*[#  16]
          +0.083*[#  18]+0.083*[#  24]+0.083*[#  25]+0.083*[#  27]+0.083*[#  33]
          +0.083*[#  34]+0.083*[#  36]
    |psi|^2 = 0.998
==== e(   9) =     9.30733 eV ==== 
     psi = 0.076*[#   6]+0.076*[#   7]+0.076*[#   9]+0.076*[#  15]+0.076*[#  16]
          +0.076*[#  18]+0.076*[#  24]+0.076*[#  25]+0.076*[#  27]+0.076*[#  33]
          +0.076*[#  34]+0.076*[#  36]+0.008*[#   2]+0.008*[#   3]+0.008*[#   4]
          +0.008*[#  11]+0.008*[#  12]+0.008*[#  13]+0.008*[#  20]+0.008*[#  21]
          +0.008*[#  22]+0.008*[#  29]+0.008*[#  30]+0.008*[#  31]
    |psi|^2 = 0.999
==== e(  10) =     9.30733 eV ==== 
     psi = 0.076*[#   6]+0.076*[#   7]+0.076*[#   9]+0.076*[#  15]+0.076*[#  16]
          +0.076*[#  18]+0.076*[#  24]+0.076*[#  25]+0.076*[#  27]+0.076*[#  33]
          +0.076*[#  34]+0.076*[#  36]+0.008*[#   2]+0.008*[#   3]+0.008*[#   4]
          +0.008*[#  11]+0.008*[#  12]+0.008*[#  13]+0.008*[#  20]+0.008*[#  21]
          +0.008*[#  22]+0.008*[#  29]+0.008*[#  30]+0.008*[#  31]
    |psi|^2 = 0.999
==== e(  11) =     9.89273 eV ==== 
     psi = 0.122*[#   5]+0.122*[#   8]+0.122*[#  14]+0.122*[#  17]+0.122*[#  23]
          +0.122*[#  26]+0.122*[#  32]+0.122*[#  35]+0.002*[#   1]+0.002*[#  10]
          +0.002*[#  19]+0.002*[#  28]+0.001*[#   2]+0.001*[#   3]+0.001*[#   4]
          +0.001*[#  11]+0.001*[#  12]+0.001*[#  13]+0.001*[#  20]+0.001*[#  21]
          +0.001*[#  22]+0.001*[#  29]+0.001*[#  30]+0.001*[#  31]
    |psi|^2 = 0.999
==== e(  12) =     9.95883 eV ==== 
     psi = 0.083*[#   6]+0.083*[#   7]+0.083*[#   9]+0.083*[#  15]+0.083*[#  16]
          +0.083*[#  18]+0.083*[#  24]+0.083*[#  25]+0.083*[#  27]+0.083*[#  33]
          +0.083*[#  34]+0.083*[#  36]
    |psi|^2 = 0.999
==== e(  13) =     9.95883 eV ==== 
     psi = 0.083*[#   6]+0.083*[#   7]+0.083*[#   9]+0.083*[#  15]+0.083*[#  16]
          +0.083*[#  18]+0.083*[#  24]+0.083*[#  25]+0.083*[#  27]+0.083*[#  33]
          +0.083*[#  34]+0.083*[#  36]
    |psi|^2 = 0.999
==== e(  14) =     9.96236 eV ==== 
     psi = 0.099*[#   5]+0.099*[#   8]+0.099*[#  14]+0.099*[#  17]+0.099*[#  23]
          +0.099*[#  26]+0.099*[#  32]+0.099*[#  35]+0.014*[#   2]+0.014*[#   3]
          +0.014*[#   4]+0.014*[#  11]+0.014*[#  12]+0.014*[#  13]+0.014*[#  20]
          +0.014*[#  21]+0.014*[#  22]+0.014*[#  29]+0.014*[#  30]+0.014*[#  31]
          +0.008*[#   1]+0.008*[#  10]+0.008*[#  19]+0.008*[#  28]
    |psi|^2 = 0.998
==== e(  15) =    10.31894 eV ==== 
     psi = 0.244*[#  17]+0.203*[#  23]+0.203*[#  32]+0.121*[#  26]+0.121*[#  35]
          +0.080*[#  14]+0.009*[#   5]+0.009*[#   8]+0.003*[#  10]+0.003*[#  19]
          +0.003*[#  28]
    |psi|^2 = 1.000
==== e(  16) =    10.31896 eV ==== 
     psi = 0.239*[#   5]+0.239*[#   8]+0.168*[#  14]+0.127*[#  26]+0.127*[#  35]
          +0.044*[#  23]+0.044*[#  32]+0.005*[#   1]+0.003*[#  17]+0.002*[#  10]
          +0.002*[#  19]+0.002*[#  28]
    |psi|^2 = 1.000
==== e(  17) =    10.34376 eV ==== 
     psi = 0.083*[#   6]+0.083*[#   7]+0.083*[#   9]+0.083*[#  15]+0.083*[#  16]
          +0.083*[#  18]+0.083*[#  24]+0.083*[#  25]+0.083*[#  27]+0.083*[#  33]
          +0.083*[#  34]+0.083*[#  36]
    |psi|^2 = 1.000
==== e(  18) =    10.34376 eV ==== 
     psi = 0.083*[#   6]+0.083*[#   7]+0.083*[#   9]+0.083*[#  15]+0.083*[#  16]
          +0.083*[#  18]+0.083*[#  24]+0.083*[#  25]+0.083*[#  27]+0.083*[#  33]
          +0.083*[#  34]+0.083*[#  36]
    |psi|^2 = 1.000
==== e(  19) =    10.50435 eV ==== 
     psi = 0.125*[#   5]+0.125*[#   8]+0.125*[#  14]+0.125*[#  17]+0.125*[#  23]
          +0.125*[#  26]+0.125*[#  32]+0.125*[#  35]
    |psi|^2 = 1.000
==== e(  20) =    10.64552 eV ==== 
     psi = 0.125*[#   5]+0.125*[#   8]+0.125*[#  14]+0.125*[#  17]+0.125*[#  23]
          +0.125*[#  26]+0.125*[#  32]+0.125*[#  35]
    |psi|^2 = 1.000
==== e(  21) =    11.01106 eV ==== 
     psi = 0.167*[#  15]+0.167*[#  16]+0.167*[#  25]+0.167*[#  27]+0.167*[#  33]
          +0.167*[#  36]
    |psi|^2 = 1.000
==== e(  22) =    11.01108 eV ==== 
     psi = 0.167*[#   6]+0.167*[#   7]+0.167*[#   9]+0.167*[#  18]+0.167*[#  24]
          +0.167*[#  34]
    |psi|^2 = 1.000
==== e(  23) =    17.47829 eV ==== 
     psi = 0.075*[#   2]+0.075*[#   3]+0.075*[#   4]+0.075*[#  11]+0.075*[#  12]
          +0.075*[#  13]+0.075*[#  20]+0.075*[#  21]+0.075*[#  22]+0.075*[#  29]
          +0.075*[#  30]+0.075*[#  31]+0.008*[#   6]+0.008*[#   7]+0.008*[#   9]
          +0.008*[#  15]+0.008*[#  16]+0.008*[#  18]+0.008*[#  24]+0.008*[#  25]
          +0.008*[#  27]+0.008*[#  33]+0.008*[#  34]+0.008*[#  36]
    |psi|^2 = 0.986
==== e(  24) =    17.47829 eV ==== 
     psi = 0.075*[#   2]+0.075*[#   3]+0.075*[#   4]+0.075*[#  11]+0.075*[#  12]
          +0.075*[#  13]+0.075*[#  20]+0.075*[#  21]+0.075*[#  22]+0.075*[#  29]
          +0.075*[#  30]+0.075*[#  31]+0.008*[#   6]+0.008*[#   7]+0.008*[#   9]
          +0.008*[#  15]+0.008*[#  16]+0.008*[#  18]+0.008*[#  24]+0.008*[#  25]
          +0.008*[#  27]+0.008*[#  33]+0.008*[#  34]+0.008*[#  36]
    |psi|^2 = 0.986
==== e(  25) =    19.80088 eV ==== 
     psi = 0.077*[#   2]+0.077*[#   3]+0.077*[#   4]+0.077*[#  11]+0.077*[#  12]
          +0.077*[#  13]+0.077*[#  20]+0.077*[#  21]+0.077*[#  22]+0.077*[#  29]
          +0.077*[#  30]+0.077*[#  31]+0.005*[#   6]+0.005*[#   7]+0.005*[#   9]
          +0.005*[#  15]+0.005*[#  16]+0.005*[#  18]+0.005*[#  24]+0.005*[#  25]
          +0.005*[#  27]+0.005*[#  33]+0.005*[#  34]+0.005*[#  36]
    |psi|^2 = 0.985
==== e(  26) =    19.80088 eV ==== 
     psi = 0.077*[#   2]+0.077*[#   3]+0.077*[#   4]+0.077*[#  11]+0.077*[#  12]
          +0.077*[#  13]+0.077*[#  20]+0.077*[#  21]+0.077*[#  22]+0.077*[#  29]
          +0.077*[#  30]+0.077*[#  31]+0.005*[#   6]+0.005*[#   7]+0.005*[#   9]
          +0.005*[#  15]+0.005*[#  16]+0.005*[#  18]+0.005*[#  24]+0.005*[#  25]
          +0.005*[#  27]+0.005*[#  33]+0.005*[#  34]+0.005*[#  36]
    |psi|^2 = 0.985

 k =   0.0000000000  0.0000000000 -0.5000000000
==== e(   1) =     5.89360 eV ==== 
     psi = 0.120*[#   2]+0.120*[#   3]+0.120*[#   4]+0.120*[#  11]+0.120*[#  22]
          +0.120*[#  30]+0.067*[#  10]+0.067*[#  19]+0.067*[#  28]+0.019*[#  17]
          +0.015*[#  23]+0.015*[#  32]+0.009*[#  26]+0.009*[#  35]+0.006*[#  14]
          
    |psi|^2 = 0.999
==== e(   2) =     5.89360 eV ==== 
     psi = 0.120*[#  12]+0.120*[#  13]+0.120*[#  20]+0.120*[#  21]+0.120*[#  29]
          +0.120*[#  31]+0.101*[#   1]+0.034*[#  10]+0.034*[#  19]+0.034*[#  28]
          +0.019*[#   5]+0.019*[#   8]+0.012*[#  14]+0.009*[#  26]+0.009*[#  35]
          +0.003*[#  23]+0.003*[#  32]
    |psi|^2 = 0.999
==== e(   3) =     8.38158 eV ==== 
     psi = 0.234*[#  14]+0.195*[#  26]+0.195*[#  35]+0.117*[#  23]+0.117*[#  32]
          +0.078*[#  17]+0.010*[#   2]+0.010*[#   3]+0.010*[#   4]+0.010*[#  11]
          +0.010*[#  22]+0.010*[#  30]
    |psi|^2 = 0.999
==== e(   4) =     8.38160 eV ==== 
     psi = 0.234*[#   5]+0.234*[#   8]+0.156*[#  17]+0.117*[#  23]+0.117*[#  32]
          +0.039*[#  26]+0.039*[#  35]+0.010*[#  12]+0.010*[#  13]+0.010*[#  20]
          +0.010*[#  21]+0.010*[#  29]+0.010*[#  31]
    |psi|^2 = 0.999
==== e(   5) =     8.77861 eV ==== 
     psi = 0.166*[#  15]+0.166*[#  16]+0.166*[#  25]+0.166*[#  27]+0.166*[#  33]
          +0.166*[#  36]
    |psi|^2 = 0.998
==== e(   6) =     8.77862 eV ==== 
     psi = 0.166*[#   6]+0.166*[#   7]+0.166*[#   9]+0.166*[#  18]+0.166*[#  24]
          +0.166*[#  34]
    |psi|^2 = 0.998
==== e(   7) =     8.98160 eV ==== 
     psi = 0.154*[#  18]+0.154*[#  24]+0.154*[#  34]+0.077*[#  15]+0.077*[#  16]
          +0.077*[#  25]+0.077*[#  27]+0.077*[#  33]+0.077*[#  36]+0.012*[#   2]
          +0.012*[#   3]+0.012*[#   4]+0.006*[#  12]+0.006*[#  13]+0.006*[#  20]
          +0.006*[#  21]+0.006*[#  29]+0.006*[#  31]
    |psi|^2 = 0.999
==== e(   8) =     8.98160 eV ==== 
     psi = 0.154*[#  18]+0.154*[#  24]+0.154*[#  34]+0.077*[#  15]+0.077*[#  16]
          +0.077*[#  25]+0.077*[#  27]+0.077*[#  33]+0.077*[#  36]+0.012*[#   2]
          +0.012*[#   3]+0.012*[#   4]+0.006*[#  12]+0.006*[#  13]+0.006*[#  20]
          +0.006*[#  21]+0.006*[#  29]+0.006*[#  31]
    |psi|^2 = 0.999
==== e(   9) =     8.98162 eV ==== 
     psi = 0.154*[#   6]+0.154*[#   7]+0.154*[#   9]+0.077*[#  15]+0.077*[#  16]
          +0.077*[#  25]+0.077*[#  27]+0.077*[#  33]+0.077*[#  36]+0.012*[#  11]
          +0.012*[#  22]+0.012*[#  30]+0.006*[#  12]+0.006*[#  13]+0.006*[#  20]
          +0.006*[#  21]+0.006*[#  29]+0.006*[#  31]
    |psi|^2 = 0.999
==== e(  10) =     8.98162 eV ==== 
     psi = 0.154*[#   6]+0.154*[#   7]+0.154*[#   9]+0.077*[#  15]+0.077*[#  16]
          +0.077*[#  25]+0.077*[#  27]+0.077*[#  33]+0.077*[#  36]+0.012*[#  11]
          +0.012*[#  22]+0.012*[#  30]+0.006*[#  12]+0.006*[#  13]+0.006*[#  20]
          +0.006*[#  21]+0.006*[#  29]+0.006*[#  31]
    |psi|^2 = 0.999
==== e(  11) =     9.84664 eV ==== 
     psi = 0.183*[#  17]+0.161*[#  23]+0.161*[#  32]+0.116*[#  26]+0.116*[#  35]
          +0.093*[#  14]+0.048*[#   5]+0.048*[#   8]+0.008*[#   2]+0.008*[#   3]
          +0.008*[#   4]+0.008*[#  11]+0.008*[#  22]+0.008*[#  30]+0.005*[#  10]
          +0.005*[#  19]+0.005*[#  28]+0.002*[#  12]+0.002*[#  13]+0.002*[#  20]
          +0.002*[#  21]+0.002*[#  29]+0.002*[#  31]+0.002*[#   1]
    |psi|^2 = 0.998
==== e(  12) =     9.84664 eV ==== 
     psi = 0.183*[#   5]+0.183*[#   8]+0.138*[#  14]+0.116*[#  26]+0.116*[#  35]
          +0.070*[#  23]+0.070*[#  32]+0.048*[#  17]+0.008*[#  12]+0.008*[#  13]
          +0.008*[#  20]+0.008*[#  21]+0.008*[#  29]+0.008*[#  31]+0.006*[#   1]
          +0.003*[#  10]+0.003*[#  19]+0.003*[#  28]+0.002*[#   2]+0.002*[#   3]
          +0.002*[#   4]+0.002*[#  11]+0.002*[#  22]+0.002*[#  30]
    |psi|^2 = 0.998
==== e(  13) =    10.14449 eV ==== 
     psi = 0.166*[#  18]+0.166*[#  24]+0.166*[#  34]+0.083*[#  15]+0.083*[#  16]
          +0.083*[#  25]+0.083*[#  27]+0.083*[#  33]+0.083*[#  36]
    |psi|^2 = 1.000
==== e(  14) =    10.14449 eV ==== 
     psi = 0.166*[#  18]+0.166*[#  24]+0.166*[#  34]+0.083*[#  15]+0.083*[#  16]
          +0.083*[#  25]+0.083*[#  27]+0.083*[#  33]+0.083*[#  36]
    |psi|^2 = 1.000
==== e(  15) =    10.14450 eV ==== 
     psi = 0.166*[#   6]+0.166*[#   7]+0.166*[#   9]+0.083*[#  15]+0.083*[#  16]
          +0.083*[#  25]+0.083*[#  27]+0.083*[#  33]+0.083*[#  36]
    |psi|^2 = 1.000
==== e(  16) =    10.14450 eV ==== 
     psi = 0.166*[#   6]+0.166*[#   7]+0.166*[#   9]+0.083*[#  15]+0.083*[#  16]
          +0.083*[#  25]+0.083*[#  27]+0.083*[#  33]+0.083*[#  36]
    |psi|^2 = 1.000
==== e(  17) =    10.26354 eV ==== 
     psi = 0.245*[#  17]+0.204*[#  23]+0.204*[#  32]+0.124*[#  26]+0.124*[#  35]
          +0.083*[#  14]+0.004*[#  10]+0.004*[#  19]+0.004*[#  28]+0.002*[#   5]
          +0.002*[#   8]
    |psi|^2 = 1.000
==== e(  18) =    10.26355 eV ==== 
     psi = 0.245*[#   5]+0.245*[#   8]+0.164*[#  14]+0.124*[#  26]+0.124*[#  35]
          +0.043*[#  23]+0.043*[#  32]+0.006*[#   1]+0.002*[#  17]+0.002*[#  10]
          +0.002*[#  19]+0.002*[#  28]
    |psi|^2 = 1.000
==== e(  19) =    10.57472 eV ==== 
     psi = 0.250*[#  14]+0.208*[#  26]+0.208*[#  35]+0.125*[#  23]+0.125*[#  32]
          +0.083*[#  17]
    |psi|^2 = 1.000
==== e(  20) =    10.57474 eV ==== 
     psi = 0.250*[#   5]+0.250*[#   8]+0.167*[#  17]+0.125*[#  23]+0.125*[#  32]
          +0.042*[#  26]+0.042*[#  35]
    |psi|^2 = 1.000
==== e(  21) =    11.01109 eV ==== 
     psi = 0.167*[#  15]+0.167*[#  16]+0.167*[#  25]+0.167*[#  27]+0.167*[#  33]
          +0.167*[#  36]
    |psi|^2 = 1.000
==== e(  22) =    11.01111 eV ==== 
     psi = 0.167*[#   6]+0.167*[#   7]+0.167*[#   9]+0.167*[#  18]+0.167*[#  24]
          +0.167*[#  34]
    |psi|^2 = 1.000
==== e(  23) =    18.60034 eV ==== 
     psi = 0.151*[#   2]+0.151*[#   3]+0.151*[#   4]+0.076*[#  12]+0.076*[#  13]
          +0.076*[#  20]+0.076*[#  21]+0.076*[#  29]+0.076*[#  31]+0.012*[#  18]
          +0.012*[#  24]+0.012*[#  34]+0.006*[#  15]+0.006*[#  16]+0.006*[#  25]
          +0.006*[#  27]+0.006*[#  33]+0.006*[#  36]
    |psi|^2 = 0.984
==== e(  24) =    18.60034 eV ==== 
     psi = 0.149*[#   2]+0.149*[#   3]+0.149*[#   4]+0.076*[#  12]+0.076*[#  13]
          +0.076*[#  20]+0.076*[#  21]+0.076*[#  29]+0.076*[#  31]+0.012*[#  18]
          +0.012*[#  24]+0.012*[#  34]+0.006*[#  15]+0.006*[#  16]+0.006*[#  25]
          +0.006*[#  27]+0.006*[#  33]+0.006*[#  36]+0.003*[#  11]+0.003*[#  22]
          +0.003*[#  30]
    |psi|^2 = 0.984
==== e(  25) =    18.60034 eV ==== 
     psi = 0.149*[#  11]+0.149*[#  22]+0.149*[#  30]+0.076*[#  12]+0.076*[#  13]
          +0.076*[#  20]+0.076*[#  21]+0.076*[#  29]+0.076*[#  31]+0.012*[#   6]
          +0.012*[#   7]+0.012*[#   9]+0.006*[#  15]+0.006*[#  16]+0.006*[#  25]
          +0.006*[#  27]+0.006*[#  33]+0.006*[#  36]+0.003*[#   2]+0.003*[#   3]
          +0.003*[#   4]
    |psi|^2 = 0.984
==== e(  26) =    18.60034 eV ==== 
     psi = 0.151*[#  11]+0.151*[#  22]+0.151*[#  30]+0.076*[#  12]+0.076*[#  13]
          +0.076*[#  20]+0.076*[#  21]+0.076*[#  29]+0.076*[#  31]+0.012*[#   6]
          +0.012*[#   7]+0.012*[#   9]+0.006*[#  15]+0.006*[#  16]+0.006*[#  25]
          +0.006*[#  27]+0.006*[#  33]+0.006*[#  36]
    |psi|^2 = 0.984

 k =   0.0000000000  0.0833333333  0.0833333333
==== e(   1) =     3.31497 eV ==== 
     psi = 0.181*[#   1]+0.181*[#  10]+0.181*[#  19]+0.181*[#  28]+0.023*[#   2]
          +0.023*[#   3]+0.023*[#   4]+0.023*[#  11]+0.023*[#  12]+0.023*[#  13]
          +0.023*[#  20]+0.023*[#  21]+0.023*[#  22]+0.023*[#  29]+0.023*[#  30]
          +0.023*[#  31]
    |psi|^2 = 1.000
==== e(   2) =     7.68413 eV ==== 
     psi = 0.209*[#  14]+0.171*[#  26]+0.171*[#  35]+0.095*[#  23]+0.095*[#  32]
          +0.059*[#   5]+0.059*[#   8]+0.057*[#  17]+0.034*[#   1]+0.011*[#  10]
          +0.011*[#  19]+0.011*[#  28]+0.002*[#  11]+0.002*[#  22]+0.002*[#  30]
          +0.001*[#  12]+0.001*[#  13]+0.001*[#  20]+0.001*[#  21]+0.001*[#  29]
          +0.001*[#  31]
    |psi|^2 = 0.998
==== e(   3) =     7.68414 eV ==== 
     psi = 0.172*[#  17]+0.170*[#   5]+0.170*[#   8]+0.134*[#  23]+0.134*[#  32]
          +0.058*[#  26]+0.058*[#  35]+0.023*[#  10]+0.023*[#  19]+0.023*[#  28]
          +0.020*[#  14]+0.002*[#   2]+0.002*[#   3]+0.002*[#   4]+0.001*[#  12]
          +0.001*[#  13]+0.001*[#  20]+0.001*[#  21]+0.001*[#  29]+0.001*[#  31]
          
    |psi|^2 = 0.998
==== e(   4) =     7.72364 eV ==== 
     psi = 0.116*[#   5]+0.116*[#   8]+0.116*[#  14]+0.116*[#  17]+0.116*[#  23]
          +0.116*[#  26]+0.116*[#  32]+0.116*[#  35]+0.014*[#   1]+0.014*[#  10]
          +0.014*[#  19]+0.014*[#  28]
    |psi|^2 = 0.998
==== e(   5) =     8.15123 eV ==== 
     psi = 0.084*[#  18]+0.084*[#  24]+0.084*[#  34]+0.083*[#  15]+0.083*[#  16]
          +0.083*[#  25]+0.083*[#  27]+0.083*[#  33]+0.083*[#  36]+0.082*[#   6]
          +0.082*[#   7]+0.082*[#   9]
    |psi|^2 = 0.998
==== e(   6) =     8.15123 eV ==== 
     psi = 0.084*[#   6]+0.084*[#   7]+0.084*[#   9]+0.083*[#  15]+0.083*[#  16]
          +0.083*[#  25]+0.083*[#  27]+0.083*[#  33]+0.083*[#  36]+0.082*[#  18]
          +0.082*[#  24]+0.082*[#  34]
    |psi|^2 = 0.998
==== e(   7) =     8.15188 eV ==== 
     psi = 0.082*[#   6]+0.082*[#   7]+0.082*[#   9]+0.082*[#  15]+0.082*[#  16]
          +0.082*[#  18]+0.082*[#  24]+0.082*[#  25]+0.082*[#  27]+0.082*[#  33]
          +0.082*[#  34]+0.082*[#  36]
    |psi|^2 = 0.998
==== e(   8) =     9.45029 eV ==== 
     psi = 0.083*[#   6]+0.083*[#   7]+0.083*[#   9]+0.083*[#  15]+0.083*[#  16]
          +0.083*[#  18]+0.083*[#  24]+0.083*[#  25]+0.083*[#  27]+0.083*[#  33]
          +0.083*[#  34]+0.083*[#  36]
    |psi|^2 = 1.000
==== e(   9) =     9.51849 eV ==== 
     psi = 0.083*[#   6]+0.083*[#   7]+0.083*[#   9]+0.083*[#  15]+0.083*[#  16]
          +0.083*[#  18]+0.083*[#  24]+0.083*[#  25]+0.083*[#  27]+0.083*[#  33]
          +0.083*[#  34]+0.083*[#  36]
    |psi|^2 = 1.000
==== e(  10) =     9.52682 eV ==== 
     psi = 0.083*[#   6]+0.083*[#   7]+0.083*[#   9]+0.083*[#  15]+0.083*[#  16]
          +0.083*[#  18]+0.083*[#  24]+0.083*[#  25]+0.083*[#  27]+0.083*[#  33]
          +0.083*[#  34]+0.083*[#  36]
    |psi|^2 = 1.000
==== e(  11) =    10.27636 eV ==== 
     psi = 0.125*[#   5]+0.125*[#   8]+0.125*[#  14]+0.125*[#  17]+0.125*[#  23]
          +0.125*[#  26]+0.125*[#  32]+0.125*[#  35]
    |psi|^2 = 1.000
==== e(  12) =    10.30889 eV ==== 
     psi = 0.125*[#   5]+0.125*[#   8]+0.125*[#  14]+0.125*[#  17]+0.125*[#  23]
          +0.125*[#  26]+0.125*[#  32]+0.125*[#  35]
    |psi|^2 = 1.000
==== e(  13) =    10.75039 eV ==== 
     psi = 0.078*[#   6]+0.078*[#   7]+0.078*[#   9]+0.078*[#  15]+0.078*[#  16]
          +0.078*[#  18]+0.078*[#  24]+0.078*[#  25]+0.078*[#  27]+0.078*[#  33]
          +0.078*[#  34]+0.078*[#  36]+0.005*[#   2]+0.005*[#   3]+0.005*[#   4]
          +0.005*[#  11]+0.005*[#  12]+0.005*[#  13]+0.005*[#  20]+0.005*[#  21]
          +0.005*[#  22]+0.005*[#  29]+0.005*[#  30]+0.005*[#  31]
    |psi|^2 = 1.000
==== e(  14) =    10.77698 eV ==== 
     psi = 0.124*[#  17]+0.102*[#  23]+0.102*[#  32]+0.074*[#  15]+0.074*[#  16]
          +0.074*[#  25]+0.074*[#  27]+0.074*[#  33]+0.074*[#  36]+0.057*[#  26]
          +0.057*[#  35]+0.035*[#  14]+0.030*[#   5]+0.030*[#   8]+0.002*[#  11]
          +0.002*[#  22]+0.002*[#  30]+0.002*[#  12]+0.002*[#  13]+0.002*[#  20]
          +0.002*[#  21]+0.002*[#  29]+0.002*[#  31]
    |psi|^2 = 1.000
==== e(  15) =    10.77699 eV ==== 
     psi = 0.104*[#   5]+0.104*[#   8]+0.099*[#  14]+0.077*[#  26]+0.077*[#  35]
          +0.074*[#   6]+0.074*[#   7]+0.074*[#   9]+0.074*[#  18]+0.074*[#  24]
          +0.074*[#  34]+0.032*[#  23]+0.032*[#  32]+0.010*[#  17]+0.002*[#   2]
          +0.002*[#   3]+0.002*[#   4]+0.002*[#  12]+0.002*[#  13]+0.002*[#  20]
          +0.002*[#  21]+0.002*[#  29]+0.002*[#  31]
    |psi|^2 = 1.000
==== e(  16) =    10.79346 eV ==== 
     psi = 0.125*[#   5]+0.125*[#   8]+0.125*[#  14]+0.125*[#  17]+0.125*[#  23]
          +0.125*[#  26]+0.125*[#  32]+0.125*[#  35]
    |psi|^2 = 1.000
==== e(  17) =    10.85292 eV ==== 
     psi = 0.105*[#  17]+0.085*[#  15]+0.085*[#  16]+0.085*[#  23]+0.085*[#  25]
          +0.085*[#  27]+0.085*[#  32]+0.085*[#  33]+0.085*[#  36]+0.047*[#  26]
          +0.047*[#  35]+0.035*[#   5]+0.035*[#   8]+0.027*[#  14]+0.002*[#  11]
          +0.002*[#  12]+0.002*[#  13]+0.002*[#  20]+0.002*[#  21]+0.002*[#  22]
          +0.002*[#  29]+0.002*[#  30]+0.002*[#   3]+0.002*[#   2]+0.002*[#   4]
          +0.002*[#  31]
    |psi|^2 = 1.000
==== e(  18) =    10.85293 eV ==== 
     psi = 0.089*[#  14]+0.085*[#   6]+0.085*[#   7]+0.085*[#   9]+0.085*[#  18]
          +0.085*[#  24]+0.085*[#  34]+0.081*[#   5]+0.081*[#   8]+0.070*[#  26]
          +0.070*[#  35]+0.031*[#  23]+0.031*[#  32]+0.012*[#  17]+0.002*[#   2]
          +0.002*[#   3]+0.002*[#   4]+0.002*[#  11]+0.002*[#  12]+0.002*[#  13]
          +0.002*[#  20]+0.002*[#  21]+0.002*[#  22]+0.002*[#  29]+0.002*[#  30]
          +0.002*[#  31]
    |psi|^2 = 1.000
==== e(  19) =    10.97585 eV ==== 
     psi = 0.085*[#  18]+0.085*[#  24]+0.085*[#  34]+0.083*[#  15]+0.083*[#  16]
          +0.083*[#  25]+0.083*[#  27]+0.083*[#  33]+0.083*[#  36]+0.082*[#   6]
          +0.082*[#   7]+0.082*[#   9]
    |psi|^2 = 1.000
==== e(  20) =    10.97586 eV ==== 
     psi = 0.085*[#   6]+0.085*[#   7]+0.085*[#   9]+0.083*[#  15]+0.083*[#  16]
          +0.083*[#  25]+0.083*[#  27]+0.083*[#  33]+0.083*[#  36]+0.082*[#  18]
          +0.082*[#  24]+0.082*[#  34]
    |psi|^2 = 1.000
==== e(  21) =    10.98835 eV ==== 
     psi = 0.083*[#   6]+0.083*[#   7]+0.083*[#   9]+0.083*[#  18]+0.083*[#  24]
          +0.083*[#  34]+0.083*[#  15]+0.083*[#  16]+0.083*[#  25]+0.083*[#  27]
          +0.083*[#  33]+0.083*[#  36]
    |psi|^2 = 1.000
==== e(  22) =    13.63508 eV ==== 
     psi = 0.076*[#   2]+0.076*[#   3]+0.076*[#   4]+0.069*[#  12]+0.069*[#  13]
          +0.069*[#  20]+0.069*[#  21]+0.069*[#  29]+0.069*[#  31]+0.063*[#  11]
          +0.063*[#  22]+0.063*[#  30]+0.032*[#  10]+0.032*[#  19]+0.032*[#  28]
          +0.007*[#  15]+0.007*[#  16]+0.007*[#  25]+0.007*[#  27]+0.007*[#  33]
          +0.007*[#  36]+0.005*[#  17]+0.005*[#   5]+0.005*[#   8]+0.004*[#  23]
          +0.004*[#  32]+0.002*[#  26]+0.002*[#  35]
    |psi|^2 = 0.995
==== e(  23) =    13.63508 eV ==== 
     psi = 0.076*[#  11]+0.076*[#  22]+0.076*[#  30]+0.069*[#  12]+0.069*[#  13]
          +0.069*[#  20]+0.069*[#  21]+0.069*[#  29]+0.069*[#  31]+0.063*[#   2]
          +0.063*[#   3]+0.063*[#   4]+0.048*[#   1]+0.016*[#  10]+0.016*[#  19]
          +0.016*[#  28]+0.007*[#   6]+0.007*[#   7]+0.007*[#   9]+0.007*[#  18]
          +0.007*[#  24]+0.007*[#  34]+0.006*[#  14]+0.005*[#  26]+0.005*[#  35]
          +0.003*[#  23]+0.003*[#  32]+0.002*[#   5]+0.002*[#   8]+0.002*[#  17]
          
    |psi|^2 = 0.995
==== e(  24) =    14.36003 eV ==== 
     psi = 0.078*[#   2]+0.078*[#   3]+0.078*[#   4]+0.078*[#  11]+0.078*[#  12]
          +0.078*[#  13]+0.078*[#  20]+0.078*[#  21]+0.078*[#  22]+0.078*[#  29]
          +0.078*[#  30]+0.078*[#  31]+0.005*[#   6]+0.005*[#   7]+0.005*[#   9]
          +0.005*[#  15]+0.005*[#  16]+0.005*[#  18]+0.005*[#  24]+0.005*[#  25]
          +0.005*[#  27]+0.005*[#  33]+0.005*[#  34]+0.005*[#  36]
    |psi|^2 = 0.996
==== e(  25) =    19.53896 eV ==== 
     psi = 0.206*[#   1]+0.206*[#  10]+0.206*[#  19]+0.206*[#  28]+0.008*[#   5]
          +0.008*[#   8]+0.008*[#  14]+0.008*[#  17]+0.008*[#  23]+0.008*[#  26]
          +0.008*[#  32]+0.008*[#  35]+0.004*[#   2]+0.004*[#   3]+0.004*[#   4]
          +0.004*[#  11]+0.004*[#  12]+0.004*[#  13]+0.004*[#  20]+0.004*[#  21]
          +0.004*[#  22]+0.004*[#  29]+0.004*[#  30]+0.004*[#  31]
    |psi|^2 = 0.942
==== e(  26) =    20.20052 eV ==== 
     psi = 0.228*[#  10]+0.228*[#  19]+0.228*[#  28]+0.042*[#   1]+0.021*[#  11]
          +0.021*[#  22]+0.021*[#  30]+0.013*[#  12]+0.013*[#  13]+0.013*[#  20]
          +0.013*[#  21]+0.013*[#  29]+0.013*[#  31]+0.009*[#   5]+0.009*[#   8]
          +0.009*[#  17]+0.007*[#  23]+0.007*[#  32]+0.004*[#   2]+0.004*[#   3]
          +0.004*[#   4]+0.004*[#  26]+0.004*[#  35]+0.002*[#  14]
    |psi|^2 = 0.932

 k =   0.0000000000  0.0833333333  0.1666666667
==== e(   1) =     3.56323 eV ==== 
     psi = 0.131*[#   1]+0.131*[#  10]+0.131*[#  19]+0.131*[#  28]+0.039*[#   2]
          +0.039*[#   3]+0.039*[#   4]+0.039*[#  11]+0.039*[#  12]+0.039*[#  13]
          +0.039*[#  20]+0.039*[#  21]+0.039*[#  22]+0.039*[#  29]+0.039*[#  30]
          +0.039*[#  31]
    |psi|^2 = 1.000
==== e(   2) =     7.66359 eV ==== 
     psi = 0.107*[#   5]+0.107*[#   8]+0.107*[#  14]+0.107*[#  17]+0.107*[#  23]
          +0.107*[#  26]+0.107*[#  32]+0.107*[#  35]+0.023*[#   1]+0.023*[#  10]
          +0.023*[#  19]+0.023*[#  28]+0.004*[#   2]+0.004*[#   3]+0.004*[#   4]
          +0.004*[#  11]+0.004*[#  12]+0.004*[#  13]+0.004*[#  20]+0.004*[#  21]
          +0.004*[#  22]+0.004*[#  29]+0.004*[#  30]+0.004*[#  31]
    |psi|^2 = 0.998
==== e(   3) =     7.79925 eV ==== 
     psi = 0.115*[#   5]+0.115*[#   8]+0.115*[#  14]+0.115*[#  17]+0.115*[#  23]
          +0.115*[#  26]+0.115*[#  32]+0.115*[#  35]+0.014*[#   1]+0.014*[#  10]
          +0.014*[#  19]+0.014*[#  28]+0.002*[#   2]+0.002*[#   3]+0.002*[#   4]
          +0.002*[#  11]+0.002*[#  12]+0.002*[#  13]+0.002*[#  20]+0.002*[#  21]
          +0.002*[#  22]+0.002*[#  29]+0.002*[#  30]+0.002*[#  31]
    |psi|^2 = 0.999
==== e(   4) =     7.83325 eV ==== 
     psi = 0.116*[#   5]+0.116*[#   8]+0.116*[#  14]+0.116*[#  17]+0.116*[#  23]
          +0.116*[#  26]+0.116*[#  32]+0.116*[#  35]+0.012*[#   1]+0.012*[#  10]
          +0.012*[#  19]+0.012*[#  28]+0.001*[#   2]+0.001*[#   3]+0.001*[#   4]
          +0.001*[#  11]+0.001*[#  12]+0.001*[#  13]+0.001*[#  20]+0.001*[#  21]
          +0.001*[#  22]+0.001*[#  29]+0.001*[#  30]+0.001*[#  31]
    |psi|^2 = 0.998
==== e(   5) =     8.21563 eV ==== 
     psi = 0.083*[#   6]+0.083*[#   7]+0.083*[#   9]+0.083*[#  15]+0.083*[#  16]
          +0.083*[#  18]+0.083*[#  24]+0.083*[#  25]+0.083*[#  27]+0.083*[#  33]
          +0.083*[#  34]+0.083*[#  36]
    |psi|^2 = 0.998
==== e(   6) =     8.21979 eV ==== 
     psi = 0.081*[#   6]+0.081*[#   7]+0.081*[#   9]+0.081*[#  15]+0.081*[#  16]
          +0.081*[#  18]+0.081*[#  24]+0.081*[#  25]+0.081*[#  27]+0.081*[#  33]
          +0.081*[#  34]+0.081*[#  36]+0.001*[#   2]+0.001*[#   3]+0.001*[#   4]
          +0.001*[#  11]+0.001*[#  12]+0.001*[#  13]+0.001*[#  20]+0.001*[#  21]
          +0.001*[#  22]+0.001*[#  29]+0.001*[#  30]+0.001*[#  31]
    |psi|^2 = 0.999
==== e(   7) =     8.22045 eV ==== 
     psi = 0.082*[#   6]+0.082*[#   7]+0.082*[#   9]+0.082*[#  15]+0.082*[#  16]
          +0.082*[#  18]+0.082*[#  24]+0.082*[#  25]+0.082*[#  27]+0.082*[#  33]
          +0.082*[#  34]+0.082*[#  36]+0.001*[#   2]+0.001*[#   3]+0.001*[#   4]
          +0.001*[#  11]+0.001*[#  12]+0.001*[#  13]+0.001*[#  20]+0.001*[#  21]
          +0.001*[#  22]+0.001*[#  29]+0.001*[#  30]+0.001*[#  31]
    |psi|^2 = 0.999
==== e(   8) =     9.38484 eV ==== 
     psi = 0.083*[#   6]+0.083*[#   7]+0.083*[#   9]+0.083*[#  15]+0.083*[#  16]
          +0.083*[#  18]+0.083*[#  24]+0.083*[#  25]+0.083*[#  27]+0.083*[#  33]
          +0.083*[#  34]+0.083*[#  36]
    |psi|^2 = 0.999
==== e(   9) =     9.57190 eV ==== 
     psi = 0.083*[#   6]+0.083*[#   7]+0.083*[#   9]+0.083*[#  15]+0.083*[#  16]
          +0.083*[#  18]+0.083*[#  24]+0.083*[#  25]+0.083*[#  27]+0.083*[#  33]
          +0.083*[#  34]+0.083*[#  36]
    |psi|^2 = 1.000
==== e(  10) =     9.57940 eV ==== 
     psi = 0.082*[#   6]+0.082*[#   7]+0.082*[#   9]+0.082*[#  15]+0.082*[#  16]
          +0.082*[#  18]+0.082*[#  24]+0.082*[#  25]+0.082*[#  27]+0.082*[#  33]
          +0.082*[#  34]+0.082*[#  36]+0.001*[#   5]+0.001*[#   8]+0.001*[#  14]
          +0.001*[#  17]+0.001*[#  23]+0.001*[#  26]+0.001*[#  32]+0.001*[#  35]
          
    |psi|^2 = 1.000
==== e(  11) =    10.22015 eV ==== 
     psi = 0.125*[#   5]+0.125*[#   8]+0.125*[#  14]+0.125*[#  17]+0.125*[#  23]
          +0.125*[#  26]+0.125*[#  32]+0.125*[#  35]
    |psi|^2 = 1.000
==== e(  12) =    10.33334 eV ==== 
     psi = 0.124*[#   5]+0.124*[#   8]+0.124*[#  14]+0.124*[#  17]+0.124*[#  23]
          +0.124*[#  26]+0.124*[#  32]+0.124*[#  35]
    |psi|^2 = 1.000
==== e(  13) =    10.44077 eV ==== 
     psi = 0.071*[#   6]+0.071*[#   7]+0.071*[#   9]+0.071*[#  15]+0.071*[#  16]
          +0.071*[#  18]+0.071*[#  24]+0.071*[#  25]+0.071*[#  27]+0.071*[#  33]
          +0.071*[#  34]+0.071*[#  36]+0.007*[#   5]+0.007*[#   8]+0.007*[#  14]
          +0.007*[#  17]+0.007*[#  23]+0.007*[#  26]+0.007*[#  32]+0.007*[#  35]
          +0.007*[#   2]+0.007*[#   3]+0.007*[#   4]+0.007*[#  11]+0.007*[#  12]
          +0.007*[#  13]+0.007*[#  20]+0.007*[#  21]+0.007*[#  22]+0.007*[#  29]
          +0.007*[#  30]+0.007*[#  31]+0.001*[#   1]+0.001*[#  10]+0.001*[#  19]
          +0.001*[#  28]
    |psi|^2 = 1.000
==== e(  14) =    10.44142 eV ==== 
     psi = 0.075*[#   6]+0.075*[#   7]+0.075*[#   9]+0.075*[#  15]+0.075*[#  16]
          +0.075*[#  18]+0.075*[#  24]+0.075*[#  25]+0.075*[#  27]+0.075*[#  33]
          +0.075*[#  34]+0.075*[#  36]+0.008*[#   2]+0.008*[#   3]+0.008*[#   4]
          +0.008*[#  11]+0.008*[#  12]+0.008*[#  13]+0.008*[#  20]+0.008*[#  21]
          +0.008*[#  22]+0.008*[#  29]+0.008*[#  30]+0.008*[#  31]
    |psi|^2 = 1.000
==== e(  15) =    10.65001 eV ==== 
     psi = 0.060*[#   6]+0.060*[#   7]+0.060*[#   9]+0.060*[#  15]+0.060*[#  16]
          +0.060*[#  18]+0.060*[#  24]+0.060*[#  25]+0.060*[#  27]+0.060*[#  33]
          +0.060*[#  34]+0.060*[#  36]+0.028*[#   5]+0.028*[#   8]+0.028*[#  14]
          +0.028*[#  17]+0.028*[#  23]+0.028*[#  26]+0.028*[#  32]+0.028*[#  35]
          +0.004*[#   2]+0.004*[#   3]+0.004*[#   4]+0.004*[#  11]+0.004*[#  12]
          +0.004*[#  13]+0.004*[#  20]+0.004*[#  21]+0.004*[#  22]+0.004*[#  29]
          +0.004*[#  30]+0.004*[#  31]+0.002*[#   1]+0.002*[#  10]+0.002*[#  19]
          +0.002*[#  28]
    |psi|^2 = 1.000
==== e(  16) =    10.71222 eV ==== 
     psi = 0.125*[#   5]+0.125*[#   8]+0.125*[#  14]+0.125*[#  17]+0.125*[#  23]
          +0.125*[#  26]+0.125*[#  32]+0.125*[#  35]
    |psi|^2 = 1.000
==== e(  17) =    10.74472 eV ==== 
     psi = 0.118*[#   5]+0.118*[#   8]+0.118*[#  14]+0.118*[#  17]+0.118*[#  23]
          +0.118*[#  26]+0.118*[#  32]+0.118*[#  35]+0.004*[#   6]+0.004*[#   7]
          +0.004*[#   9]+0.004*[#  15]+0.004*[#  16]+0.004*[#  18]+0.004*[#  24]
          +0.004*[#  25]+0.004*[#  27]+0.004*[#  33]+0.004*[#  34]+0.004*[#  36]
          
    |psi|^2 = 1.000
==== e(  18) =    10.82158 eV ==== 
     psi = 0.099*[#   5]+0.099*[#   8]+0.099*[#  14]+0.099*[#  17]+0.099*[#  23]
          +0.099*[#  26]+0.099*[#  32]+0.099*[#  35]+0.016*[#   6]+0.016*[#   7]
          +0.016*[#   9]+0.016*[#  15]+0.016*[#  16]+0.016*[#  18]+0.016*[#  24]
          +0.016*[#  25]+0.016*[#  27]+0.016*[#  33]+0.016*[#  34]+0.016*[#  36]
          +0.001*[#   2]+0.001*[#   3]+0.001*[#   4]+0.001*[#  11]+0.001*[#  12]
          +0.001*[#  13]+0.001*[#  20]+0.001*[#  21]+0.001*[#  22]+0.001*[#  29]
          +0.001*[#  30]+0.001*[#  31]
    |psi|^2 = 1.000
==== e(  19) =    10.87702 eV ==== 
     psi = 0.083*[#   6]+0.083*[#   7]+0.083*[#   9]+0.083*[#  15]+0.083*[#  16]
          +0.083*[#  18]+0.083*[#  24]+0.083*[#  25]+0.083*[#  27]+0.083*[#  33]
          +0.083*[#  34]+0.083*[#  36]
    |psi|^2 = 1.000
==== e(  20) =    10.97573 eV ==== 
     psi = 0.085*[#  15]+0.085*[#  16]+0.085*[#  25]+0.085*[#  27]+0.085*[#  33]
          +0.085*[#  36]+0.082*[#   6]+0.082*[#   7]+0.082*[#   9]+0.082*[#  18]
          +0.082*[#  24]+0.082*[#  34]
    |psi|^2 = 1.000
==== e(  21) =    10.97645 eV ==== 
     psi = 0.085*[#   6]+0.085*[#   7]+0.085*[#   9]+0.085*[#  18]+0.085*[#  24]
          +0.085*[#  34]+0.082*[#  15]+0.082*[#  16]+0.082*[#  25]+0.082*[#  27]
          +0.082*[#  33]+0.082*[#  36]
    |psi|^2 = 1.000
==== e(  22) =    12.57459 eV ==== 
     psi = 0.054*[#   2]+0.054*[#   3]+0.054*[#   4]+0.054*[#  11]+0.054*[#  12]
          +0.054*[#  13]+0.054*[#  20]+0.054*[#  21]+0.054*[#  22]+0.054*[#  29]
          +0.054*[#  30]+0.054*[#  31]+0.042*[#   1]+0.042*[#  10]+0.042*[#  19]
          +0.042*[#  28]+0.012*[#   5]+0.012*[#   8]+0.012*[#  14]+0.012*[#  17]
          +0.012*[#  23]+0.012*[#  26]+0.012*[#  32]+0.012*[#  35]+0.007*[#   6]
          +0.007*[#   7]+0.007*[#   9]+0.007*[#  15]+0.007*[#  16]+0.007*[#  18]
          +0.007*[#  24]+0.007*[#  25]+0.007*[#  27]+0.007*[#  33]+0.007*[#  34]
          +0.007*[#  36]
    |psi|^2 = 0.997
==== e(  23) =    14.18559 eV ==== 
     psi = 0.064*[#   2]+0.064*[#   3]+0.064*[#   4]+0.064*[#  11]+0.064*[#  12]
          +0.064*[#  13]+0.064*[#  20]+0.064*[#  21]+0.064*[#  22]+0.064*[#  29]
          +0.064*[#  30]+0.064*[#  31]+0.026*[#   1]+0.026*[#  10]+0.026*[#  19]
          +0.026*[#  28]+0.008*[#   6]+0.008*[#   7]+0.008*[#   9]+0.008*[#  15]
          +0.008*[#  16]+0.008*[#  18]+0.008*[#  24]+0.008*[#  25]+0.008*[#  27]
          +0.008*[#  33]+0.008*[#  34]+0.008*[#  36]+0.003*[#   5]+0.003*[#   8]
          +0.003*[#  14]+0.003*[#  17]+0.003*[#  23]+0.003*[#  26]+0.003*[#  32]
          +0.003*[#  35]
    |psi|^2 = 0.995
==== e(  24) =    14.90551 eV ==== 
     psi = 0.075*[#   2]+0.075*[#   3]+0.075*[#   4]+0.075*[#  11]+0.075*[#  12]
          +0.075*[#  13]+0.075*[#  20]+0.075*[#  21]+0.075*[#  22]+0.075*[#  29]
          +0.075*[#  30]+0.075*[#  31]+0.008*[#   6]+0.008*[#   7]+0.008*[#   9]
          +0.008*[#  15]+0.008*[#  16]+0.008*[#  18]+0.008*[#  24]+0.008*[#  25]
          +0.008*[#  27]+0.008*[#  33]+0.008*[#  34]+0.008*[#  36]
    |psi|^2 = 0.995
==== e(  25) =    19.63444 eV ==== 
     psi = 0.193*[#   1]+0.193*[#  10]+0.193*[#  19]+0.193*[#  28]+0.010*[#   2]
          +0.010*[#   3]+0.010*[#   4]+0.010*[#  11]+0.010*[#  12]+0.010*[#  13]
          +0.010*[#  20]+0.010*[#  21]+0.010*[#  22]+0.010*[#  29]+0.010*[#  30]
          +0.010*[#  31]+0.008*[#   5]+0.008*[#   8]+0.008*[#  14]+0.008*[#  17]
          +0.008*[#  23]+0.008*[#  26]+0.008*[#  32]+0.008*[#  35]
    |psi|^2 = 0.956
==== e(  26) =    20.32969 eV ==== 
     psi = 0.166*[#   1]+0.166*[#  10]+0.166*[#  19]+0.166*[#  28]+0.020*[#   2]
          +0.020*[#   3]+0.020*[#   4]+0.020*[#  11]+0.020*[#  12]+0.020*[#  13]
          +0.020*[#  20]+0.020*[#  21]+0.020*[#  22]+0.020*[#  29]+0.020*[#  30]
          +0.020*[#  31]+0.007*[#   5]+0.007*[#   8]+0.007*[#  14]+0.007*[#  17]
          +0.007*[#  23]+0.007*[#  26]+0.007*[#  32]+0.007*[#  35]
    |psi|^2 = 0.955

 k =   0.0000000000  0.0833333333  0.2500000000
==== e(   1) =     3.97061 eV ==== 
     psi = 0.094*[#   1]+0.094*[#  10]+0.094*[#  19]+0.094*[#  28]+0.052*[#   2]
          +0.052*[#   3]+0.052*[#   4]+0.052*[#  11]+0.052*[#  12]+0.052*[#  13]
          +0.052*[#  20]+0.052*[#  21]+0.052*[#  22]+0.052*[#  29]+0.052*[#  30]
          +0.052*[#  31]
    |psi|^2 = 1.000
==== e(   2) =     7.56323 eV ==== 
     psi = 0.089*[#   5]+0.089*[#   8]+0.089*[#  14]+0.089*[#  17]+0.089*[#  23]
          +0.089*[#  26]+0.089*[#  32]+0.089*[#  35]+0.032*[#   1]+0.032*[#  10]
          +0.032*[#  19]+0.032*[#  28]+0.013*[#   2]+0.013*[#   3]+0.013*[#   4]
          +0.013*[#  11]+0.013*[#  12]+0.013*[#  13]+0.013*[#  20]+0.013*[#  21]
          +0.013*[#  22]+0.013*[#  29]+0.013*[#  30]+0.013*[#  31]
    |psi|^2 = 0.998
==== e(   3) =     7.97180 eV ==== 
     psi = 0.115*[#   5]+0.115*[#   8]+0.115*[#  14]+0.115*[#  17]+0.115*[#  23]
          +0.115*[#  26]+0.115*[#  32]+0.115*[#  35]+0.011*[#   1]+0.011*[#  10]
          +0.011*[#  19]+0.011*[#  28]+0.003*[#   2]+0.003*[#   3]+0.003*[#   4]
          +0.003*[#  11]+0.003*[#  12]+0.003*[#  13]+0.003*[#  20]+0.003*[#  21]
          +0.003*[#  22]+0.003*[#  29]+0.003*[#  30]+0.003*[#  31]
    |psi|^2 = 0.999
==== e(   4) =     7.99754 eV ==== 
     psi = 0.115*[#   5]+0.115*[#   8]+0.115*[#  14]+0.115*[#  17]+0.115*[#  23]
          +0.115*[#  26]+0.115*[#  32]+0.115*[#  35]+0.009*[#   1]+0.009*[#  10]
          +0.009*[#  19]+0.009*[#  28]+0.002*[#   2]+0.002*[#   3]+0.002*[#   4]
          +0.002*[#  11]+0.002*[#  12]+0.002*[#  13]+0.002*[#  20]+0.002*[#  21]
          +0.002*[#  22]+0.002*[#  29]+0.002*[#  30]+0.002*[#  31]+0.001*[#   6]
          +0.001*[#   7]+0.001*[#   9]+0.001*[#  15]+0.001*[#  16]+0.001*[#  18]
          +0.001*[#  24]+0.001*[#  25]+0.001*[#  27]+0.001*[#  33]+0.001*[#  34]
          +0.001*[#  36]
    |psi|^2 = 0.999
==== e(   5) =     8.31877 eV ==== 
     psi = 0.083*[#   6]+0.083*[#   7]+0.083*[#   9]+0.083*[#  15]+0.083*[#  16]
          +0.083*[#  18]+0.083*[#  24]+0.083*[#  25]+0.083*[#  27]+0.083*[#  33]
          +0.083*[#  34]+0.083*[#  36]
    |psi|^2 = 0.998
==== e(   6) =     8.33334 eV ==== 
     psi = 0.080*[#   6]+0.080*[#   7]+0.080*[#   9]+0.080*[#  15]+0.080*[#  16]
          +0.080*[#  18]+0.080*[#  24]+0.080*[#  25]+0.080*[#  27]+0.080*[#  33]
          +0.080*[#  34]+0.080*[#  36]+0.002*[#   2]+0.002*[#   3]+0.002*[#   4]
          +0.002*[#  11]+0.002*[#  12]+0.002*[#  13]+0.002*[#  20]+0.002*[#  21]
[...]
          +0.032*[#  22]+0.032*[#  30]+0.029*[#  18]+0.029*[#  24]+0.029*[#  34]
          +0.028*[#   5]+0.028*[#   8]+0.024*[#  14]+0.022*[#  15]+0.022*[#  16]
          +0.022*[#  25]+0.022*[#  27]+0.022*[#  33]+0.022*[#  36]+0.022*[#  26]
          +0.022*[#  35]+0.019*[#   6]+0.019*[#   7]+0.019*[#   9]+0.018*[#  23]
          +0.018*[#  32]+0.016*[#  17]+0.009*[#   1]+0.007*[#  10]+0.007*[#  19]
          +0.007*[#  28]
    |psi|^2 = 0.998
==== e(  23) =    12.16272 eV ==== 
     psi = 0.123*[#  11]+0.123*[#  22]+0.123*[#  30]+0.041*[#  12]+0.041*[#  13]
          +0.041*[#  20]+0.041*[#  21]+0.041*[#  29]+0.041*[#  31]+0.040*[#   2]
          +0.040*[#   3]+0.040*[#   4]+0.032*[#  14]+0.027*[#  26]+0.027*[#  35]
          +0.022*[#   6]+0.022*[#   7]+0.022*[#   9]+0.016*[#  23]+0.016*[#  32]
          +0.011*[#  15]+0.011*[#  16]+0.011*[#  25]+0.011*[#  27]+0.011*[#  33]
          +0.011*[#  36]+0.011*[#  17]
    |psi|^2 = 0.996
==== e(  24) =    12.16272 eV ==== 
     psi = 0.082*[#   2]+0.082*[#   3]+0.082*[#   4]+0.082*[#  12]+0.082*[#  13]
          +0.082*[#  20]+0.082*[#  21]+0.082*[#  29]+0.082*[#  31]+0.032*[#   5]
          +0.032*[#   8]+0.022*[#  18]+0.022*[#  24]+0.022*[#  34]+0.022*[#  17]
          +0.016*[#  23]+0.016*[#  32]+0.011*[#  15]+0.011*[#  16]+0.011*[#  25]
          +0.011*[#  27]+0.011*[#  33]+0.011*[#  36]+0.005*[#  26]+0.005*[#  35]
          
    |psi|^2 = 0.996
==== e(  25) =    16.19313 eV ==== 
     psi = 0.212*[#  10]+0.212*[#  19]+0.212*[#  28]+0.143*[#   1]+0.016*[#   6]
          +0.016*[#   7]+0.016*[#   9]+0.016*[#  15]+0.016*[#  16]+0.016*[#  25]
          +0.016*[#  27]+0.016*[#  33]+0.016*[#  36]+0.011*[#  18]+0.011*[#  24]
          +0.011*[#  34]+0.003*[#  11]+0.003*[#  22]+0.003*[#  30]+0.002*[#  12]
          +0.002*[#  13]+0.002*[#  20]+0.002*[#  21]+0.002*[#  29]+0.002*[#  31]
          +0.002*[#   2]+0.002*[#   3]+0.002*[#   4]
    |psi|^2 = 0.988
==== e(  26) =    16.19313 eV ==== 
     psi = 0.247*[#   1]+0.178*[#  10]+0.178*[#  19]+0.178*[#  28]+0.019*[#  18]
          +0.019*[#  24]+0.019*[#  34]+0.014*[#   6]+0.014*[#   7]+0.014*[#   9]
          +0.014*[#  15]+0.014*[#  16]+0.014*[#  25]+0.014*[#  27]+0.014*[#  33]
          +0.014*[#  36]+0.003*[#   2]+0.003*[#   3]+0.003*[#   4]+0.002*[#  12]
          +0.002*[#  13]+0.002*[#  20]+0.002*[#  21]+0.002*[#  29]+0.002*[#  31]
          +0.002*[#  11]+0.002*[#  22]+0.002*[#  30]
    |psi|^2 = 0.988

 k =   0.4166666667 -0.5000000000 -0.5000000000
==== e(   1) =     7.45478 eV ==== 
     psi = 0.266*[#  18]+0.266*[#  24]+0.266*[#  34]+0.185*[#   1]+0.002*[#  12]
          +0.002*[#  13]+0.002*[#  20]+0.002*[#  21]+0.002*[#  29]+0.002*[#  31]
          
    |psi|^2 = 0.999
==== e(   2) =     7.45479 eV ==== 
     psi = 0.089*[#  15]+0.089*[#  16]+0.089*[#  25]+0.089*[#  27]+0.089*[#  33]
          +0.089*[#  36]+0.088*[#   6]+0.088*[#   7]+0.088*[#   9]+0.062*[#  10]
          +0.062*[#  19]+0.062*[#  28]+0.002*[#   2]+0.002*[#   3]+0.002*[#   4]
          +0.001*[#  12]+0.001*[#  13]+0.001*[#  20]+0.001*[#  21]+0.001*[#  29]
          +0.001*[#  31]
    |psi|^2 = 0.999
==== e(   3) =     7.45479 eV ==== 
     psi = 0.089*[#  15]+0.089*[#  16]+0.089*[#  25]+0.089*[#  27]+0.089*[#  33]
          +0.089*[#  36]+0.088*[#   6]+0.088*[#   7]+0.088*[#   9]+0.062*[#  10]
          +0.062*[#  19]+0.062*[#  28]+0.002*[#   2]+0.002*[#   3]+0.002*[#   4]
          +0.001*[#  12]+0.001*[#  13]+0.001*[#  20]+0.001*[#  21]+0.001*[#  29]
          +0.001*[#  31]
    |psi|^2 = 0.999
==== e(   4) =     7.45479 eV ==== 
     psi = 0.091*[#   6]+0.091*[#   7]+0.091*[#   9]+0.088*[#  15]+0.088*[#  16]
          +0.088*[#  25]+0.088*[#  27]+0.088*[#  33]+0.088*[#  36]+0.062*[#  10]
          +0.062*[#  19]+0.062*[#  28]+0.005*[#  11]+0.005*[#  22]+0.005*[#  30]
          
    |psi|^2 = 0.999
==== e(   5) =     9.44016 eV ==== 
     psi = 0.150*[#  17]+0.126*[#  23]+0.126*[#  32]+0.076*[#  26]+0.076*[#  35]
          +0.055*[#  15]+0.055*[#  16]+0.055*[#  25]+0.055*[#  27]+0.055*[#  33]
          +0.055*[#  36]+0.051*[#  14]+0.021*[#   6]+0.021*[#   7]+0.021*[#   9]
          
    |psi|^2 = 0.999
==== e(   6) =     9.44016 eV ==== 
     psi = 0.146*[#  17]+0.123*[#  23]+0.123*[#  32]+0.078*[#  26]+0.078*[#  35]
          +0.056*[#  14]+0.054*[#  15]+0.054*[#  16]+0.054*[#  25]+0.054*[#  27]
          +0.054*[#  33]+0.054*[#  36]+0.023*[#   6]+0.023*[#   7]+0.023*[#   9]
          
    |psi|^2 = 0.999
==== e(   7) =     9.44017 eV ==== 
     psi = 0.195*[#  14]+0.148*[#  26]+0.148*[#  35]+0.086*[#   6]+0.086*[#   7]
          +0.086*[#   9]+0.053*[#  23]+0.053*[#  32]+0.022*[#  15]+0.022*[#  16]
          +0.022*[#  25]+0.022*[#  27]+0.022*[#  33]+0.022*[#  36]+0.006*[#  17]
          
    |psi|^2 = 0.999
==== e(   8) =     9.44018 eV ==== 
     psi = 0.302*[#   5]+0.302*[#   8]+0.130*[#  18]+0.130*[#  24]+0.130*[#  34]
          
    |psi|^2 = 0.999
==== e(   9) =     9.47788 eV ==== 
     psi = 0.200*[#  17]+0.150*[#  23]+0.150*[#  32]+0.067*[#  15]+0.067*[#  16]
          +0.067*[#  25]+0.067*[#  27]+0.067*[#  33]+0.067*[#  36]+0.050*[#  26]
          +0.050*[#  35]
    |psi|^2 = 1.000
==== e(  10) =     9.47788 eV ==== 
     psi = 0.150*[#  14]+0.125*[#  26]+0.125*[#  35]+0.075*[#  23]+0.075*[#  32]
          +0.067*[#   6]+0.067*[#   7]+0.067*[#   9]+0.050*[#  17]+0.033*[#  15]
          +0.033*[#  16]+0.033*[#  25]+0.033*[#  27]+0.033*[#  33]+0.033*[#  36]
          
    |psi|^2 = 1.000
==== e(  11) =     9.47788 eV ==== 
     psi = 0.150*[#  14]+0.125*[#  26]+0.125*[#  35]+0.075*[#  23]+0.075*[#  32]
          +0.067*[#   6]+0.067*[#   7]+0.067*[#   9]+0.050*[#  17]+0.033*[#  15]
          +0.033*[#  16]+0.033*[#  25]+0.033*[#  27]+0.033*[#  33]+0.033*[#  36]
          
    |psi|^2 = 1.000
==== e(  12) =     9.47789 eV ==== 
     psi = 0.300*[#   5]+0.300*[#   8]+0.133*[#  18]+0.133*[#  24]+0.133*[#  34]
          
    |psi|^2 = 1.000
==== e(  13) =    10.58515 eV ==== 
     psi = 0.068*[#  17]+0.061*[#  15]+0.061*[#  16]+0.061*[#  25]+0.061*[#  27]
          +0.061*[#  33]+0.061*[#  36]+0.056*[#  23]+0.056*[#  32]+0.038*[#   6]
          +0.038*[#   7]+0.038*[#   9]+0.034*[#  26]+0.034*[#  35]+0.027*[#   2]
          +0.027*[#   3]+0.027*[#   4]+0.026*[#  12]+0.026*[#  13]+0.026*[#  20]
          +0.026*[#  21]+0.026*[#  29]+0.026*[#  31]+0.023*[#  14]+0.002*[#  18]
          +0.002*[#  24]+0.002*[#  34]+0.002*[#   5]+0.002*[#   8]
    |psi|^2 = 0.999
==== e(  14) =    10.58515 eV ==== 
     psi = 0.054*[#   6]+0.054*[#   7]+0.054*[#   9]+0.048*[#  14]+0.047*[#  15]
          +0.047*[#  16]+0.047*[#  25]+0.047*[#  27]+0.047*[#  33]+0.047*[#  36]
          +0.045*[#  26]+0.045*[#  35]+0.039*[#  23]+0.039*[#  32]+0.036*[#  17]
          +0.032*[#  11]+0.032*[#  22]+0.032*[#  30]+0.016*[#   2]+0.016*[#   3]
          +0.016*[#   4]+0.016*[#  12]+0.016*[#  13]+0.016*[#  20]+0.016*[#  21]
          +0.016*[#  29]+0.016*[#  31]+0.013*[#  18]+0.013*[#  24]+0.013*[#  34]
          +0.011*[#   5]+0.011*[#   8]
    |psi|^2 = 0.999
==== e(  15) =    10.58515 eV ==== 
     psi = 0.042*[#   6]+0.042*[#   7]+0.042*[#   9]+0.040*[#  15]+0.040*[#  16]
          +0.040*[#  25]+0.040*[#  27]+0.040*[#  33]+0.040*[#  36]+0.039*[#  18]
          +0.039*[#  24]+0.039*[#  34]+0.037*[#  14]+0.036*[#  26]+0.036*[#  35]
          +0.033*[#   5]+0.033*[#   8]+0.033*[#  23]+0.033*[#  32]+0.032*[#  17]
          +0.023*[#  11]+0.023*[#  22]+0.023*[#  30]+0.019*[#   2]+0.019*[#   3]
          +0.019*[#   4]+0.019*[#  12]+0.019*[#  13]+0.019*[#  20]+0.019*[#  21]
          +0.019*[#  29]+0.019*[#  31]
    |psi|^2 = 0.999
==== e(  16) =    10.58516 eV ==== 
     psi = 0.107*[#  18]+0.107*[#  24]+0.107*[#  34]+0.091*[#   5]+0.091*[#   8]
          +0.029*[#  14]+0.028*[#   6]+0.028*[#   7]+0.028*[#   9]+0.024*[#  11]
          +0.024*[#  22]+0.024*[#  30]+0.022*[#  26]+0.022*[#  35]+0.019*[#  12]
          +0.019*[#  13]+0.019*[#  20]+0.019*[#  21]+0.019*[#  29]+0.019*[#  31]
          +0.018*[#   2]+0.018*[#   3]+0.018*[#   4]+0.013*[#  15]+0.013*[#  16]
          +0.013*[#  25]+0.013*[#  27]+0.013*[#  33]+0.013*[#  36]+0.009*[#  23]
          +0.009*[#  32]+0.002*[#  17]+0.002*[#   1]
    |psi|^2 = 0.999
==== e(  17) =    10.84457 eV ==== 
     psi = 0.133*[#  17]+0.100*[#  23]+0.100*[#  32]+0.100*[#  15]+0.100*[#  16]
          +0.100*[#  25]+0.100*[#  27]+0.100*[#  33]+0.100*[#  36]+0.033*[#  26]
          +0.033*[#  35]
    |psi|^2 = 1.000
==== e(  18) =    10.84458 eV ==== 
     psi = 0.100*[#  14]+0.100*[#   6]+0.100*[#   7]+0.100*[#   9]+0.083*[#  26]
          +0.083*[#  35]+0.050*[#  15]+0.050*[#  16]+0.050*[#  23]+0.050*[#  25]
          +0.050*[#  27]+0.050*[#  32]+0.050*[#  33]+0.050*[#  36]+0.034*[#  17]
          
    |psi|^2 = 1.000
==== e(  19) =    10.84458 eV ==== 
     psi = 0.100*[#  14]+0.100*[#   6]+0.100*[#   7]+0.100*[#   9]+0.083*[#  26]
          +0.083*[#  35]+0.050*[#  15]+0.050*[#  16]+0.050*[#  23]+0.050*[#  25]
          +0.050*[#  27]+0.050*[#  32]+0.050*[#  33]+0.050*[#  36]+0.033*[#  17]
          
    |psi|^2 = 1.000
==== e(  20) =    10.84459 eV ==== 
     psi = 0.200*[#   5]+0.200*[#   8]+0.200*[#  18]+0.200*[#  24]+0.200*[#  34]
          
    |psi|^2 = 1.000
==== e(  21) =    11.64530 eV ==== 
     psi = 0.080*[#   2]+0.080*[#   3]+0.080*[#   4]+0.078*[#  12]+0.078*[#  13]
          +0.078*[#  20]+0.078*[#  21]+0.078*[#  29]+0.078*[#  31]+0.030*[#  17]
          +0.026*[#  15]+0.026*[#  16]+0.026*[#  25]+0.026*[#  27]+0.026*[#  33]
          +0.026*[#  36]+0.025*[#  23]+0.025*[#  32]+0.015*[#  26]+0.015*[#  35]
          +0.010*[#  14]+0.005*[#  10]+0.005*[#  19]+0.005*[#  28]+0.001*[#   6]
          +0.001*[#   7]+0.001*[#   9]
    |psi|^2 = 0.997
==== e(  22) =    11.64530 eV ==== 
     psi = 0.080*[#   2]+0.080*[#   3]+0.080*[#   4]+0.078*[#  12]+0.078*[#  13]
          +0.078*[#  20]+0.078*[#  21]+0.078*[#  29]+0.078*[#  31]+0.030*[#  17]
          +0.026*[#  15]+0.026*[#  16]+0.026*[#  25]+0.026*[#  27]+0.026*[#  33]
          +0.026*[#  36]+0.025*[#  23]+0.025*[#  32]+0.015*[#  26]+0.015*[#  35]
          +0.010*[#  14]+0.005*[#  10]+0.005*[#  19]+0.005*[#  28]+0.001*[#   6]
          +0.001*[#   7]+0.001*[#   9]
    |psi|^2 = 0.997
==== e(  23) =    11.64530 eV ==== 
     psi = 0.233*[#  11]+0.233*[#  22]+0.233*[#  30]+0.049*[#   6]+0.049*[#   7]
          +0.049*[#   9]+0.039*[#  14]+0.030*[#  26]+0.030*[#  35]+0.010*[#  23]
          +0.010*[#  32]+0.005*[#  10]+0.005*[#  19]+0.005*[#  28]+0.001*[#  15]
          +0.001*[#  16]+0.001*[#  25]+0.001*[#  27]+0.001*[#  33]+0.001*[#  36]
          
    |psi|^2 = 0.997
==== e(  24) =    11.64530 eV ==== 
     psi = 0.080*[#  12]+0.080*[#  13]+0.080*[#  20]+0.080*[#  21]+0.080*[#  29]
          +0.080*[#  31]+0.074*[#   2]+0.074*[#   3]+0.074*[#   4]+0.059*[#   5]
          +0.059*[#   8]+0.052*[#  18]+0.052*[#  24]+0.052*[#  34]+0.014*[#   1]
          +0.003*[#  11]+0.003*[#  22]+0.003*[#  30]
    |psi|^2 = 0.997
==== e(  25) =    16.38439 eV ==== 
     psi = 0.257*[#  10]+0.257*[#  19]+0.257*[#  28]+0.019*[#   6]+0.019*[#   7]
          +0.019*[#   9]+0.018*[#  15]+0.018*[#  16]+0.018*[#  25]+0.018*[#  27]
          +0.018*[#  33]+0.018*[#  36]+0.007*[#  12]+0.007*[#  13]+0.007*[#  20]
          +0.007*[#  21]+0.007*[#  29]+0.007*[#  31]+0.003*[#   1]+0.002*[#   2]
          +0.002*[#   3]+0.002*[#   4]
    |psi|^2 = 0.988
==== e(  26) =    16.38439 eV ==== 
     psi = 0.617*[#   1]+0.053*[#  10]+0.053*[#  19]+0.053*[#  28]+0.044*[#  18]
          +0.044*[#  24]+0.044*[#  34]+0.010*[#   2]+0.010*[#   3]+0.010*[#   4]
          +0.004*[#   6]+0.004*[#   7]+0.004*[#   9]+0.004*[#  15]+0.004*[#  16]
          +0.004*[#  25]+0.004*[#  27]+0.004*[#  33]+0.004*[#  36]+0.003*[#  12]
          +0.003*[#  13]+0.003*[#  20]+0.003*[#  21]+0.003*[#  29]+0.003*[#  31]
          
    |psi|^2 = 0.988

 k =  -0.5000000000 -0.5000000000 -0.5000000000
==== e(   1) =     7.43670 eV ==== 
     psi = 0.271*[#  18]+0.271*[#  24]+0.271*[#  34]+0.185*[#   1]
    |psi|^2 = 0.999
==== e(   2) =     7.43671 eV ==== 
     psi = 0.090*[#   6]+0.090*[#   7]+0.090*[#   9]+0.090*[#  15]+0.090*[#  16]
          +0.090*[#  25]+0.090*[#  27]+0.090*[#  33]+0.090*[#  36]+0.062*[#  10]
          +0.062*[#  19]+0.062*[#  28]
    |psi|^2 = 0.999
==== e(   3) =     7.43671 eV ==== 
     psi = 0.090*[#   6]+0.090*[#   7]+0.090*[#   9]+0.090*[#  15]+0.090*[#  16]
          +0.090*[#  25]+0.090*[#  27]+0.090*[#  33]+0.090*[#  36]+0.062*[#  10]
          +0.062*[#  19]+0.062*[#  28]
    |psi|^2 = 0.999
==== e(   4) =     7.43671 eV ==== 
     psi = 0.090*[#   6]+0.090*[#   7]+0.090*[#   9]+0.090*[#  15]+0.090*[#  16]
          +0.090*[#  25]+0.090*[#  27]+0.090*[#  33]+0.090*[#  36]+0.062*[#  10]
          +0.062*[#  19]+0.062*[#  28]
    |psi|^2 = 0.999
==== e(   5) =     9.45629 eV ==== 
     psi = 0.198*[#  17]+0.149*[#  23]+0.149*[#  32]+0.067*[#  15]+0.067*[#  16]
          +0.067*[#  25]+0.067*[#  27]+0.067*[#  33]+0.067*[#  36]+0.050*[#  26]
          +0.050*[#  35]
    |psi|^2 = 1.000
==== e(   6) =     9.45629 eV ==== 
     psi = 0.198*[#  17]+0.149*[#  23]+0.149*[#  32]+0.067*[#  15]+0.067*[#  16]
          +0.067*[#  25]+0.067*[#  27]+0.067*[#  33]+0.067*[#  36]+0.050*[#  26]
          +0.050*[#  35]
    |psi|^2 = 1.000
==== e(   7) =     9.45629 eV ==== 
     psi = 0.198*[#  17]+0.149*[#  23]+0.149*[#  32]+0.067*[#  15]+0.067*[#  16]
          +0.067*[#  25]+0.067*[#  27]+0.067*[#  33]+0.067*[#  36]+0.050*[#  26]
          +0.050*[#  35]
    |psi|^2 = 1.000
==== e(   8) =     9.45630 eV ==== 
     psi = 0.198*[#  14]+0.149*[#  26]+0.149*[#  35]+0.090*[#   6]+0.090*[#   7]
          +0.090*[#   9]+0.050*[#  23]+0.050*[#  32]+0.022*[#  15]+0.022*[#  16]
          +0.022*[#  25]+0.022*[#  27]+0.022*[#  33]+0.022*[#  36]
    |psi|^2 = 1.000
==== e(   9) =     9.45630 eV ==== 
     psi = 0.198*[#  14]+0.149*[#  26]+0.149*[#  35]+0.090*[#   6]+0.090*[#   7]
          +0.090*[#   9]+0.050*[#  23]+0.050*[#  32]+0.023*[#  15]+0.023*[#  16]
          +0.023*[#  25]+0.023*[#  27]+0.023*[#  33]+0.023*[#  36]
    |psi|^2 = 1.000
==== e(  10) =     9.45630 eV ==== 
     psi = 0.198*[#  14]+0.149*[#  26]+0.149*[#  35]+0.090*[#   6]+0.090*[#   7]
          +0.090*[#   9]+0.050*[#  23]+0.050*[#  32]+0.023*[#  15]+0.023*[#  16]
          +0.023*[#  25]+0.023*[#  27]+0.023*[#  33]+0.023*[#  36]
    |psi|^2 = 1.000
==== e(  11) =     9.45631 eV ==== 
     psi = 0.297*[#   5]+0.297*[#   8]+0.135*[#  18]+0.135*[#  24]+0.135*[#  34]
          
    |psi|^2 = 1.000
==== e(  12) =     9.45631 eV ==== 
     psi = 0.297*[#   5]+0.297*[#   8]+0.135*[#  18]+0.135*[#  24]+0.135*[#  34]
          
    |psi|^2 = 1.000
==== e(  13) =    10.86864 eV ==== 
     psi = 0.135*[#  17]+0.101*[#  23]+0.101*[#  32]+0.099*[#  15]+0.099*[#  16]
          +0.099*[#  25]+0.099*[#  27]+0.099*[#  33]+0.099*[#  36]+0.034*[#  26]
          +0.034*[#  35]
    |psi|^2 = 1.000
==== e(  14) =    10.86864 eV ==== 
     psi = 0.135*[#  17]+0.101*[#  23]+0.101*[#  32]+0.099*[#  15]+0.099*[#  16]
          +0.099*[#  25]+0.099*[#  27]+0.099*[#  33]+0.099*[#  36]+0.034*[#  26]
          +0.034*[#  35]
    |psi|^2 = 1.000
==== e(  15) =    10.86864 eV ==== 
     psi = 0.135*[#  17]+0.101*[#  23]+0.101*[#  32]+0.099*[#  15]+0.099*[#  16]
          +0.099*[#  25]+0.099*[#  27]+0.099*[#  33]+0.099*[#  36]+0.034*[#  26]
          +0.034*[#  35]
    |psi|^2 = 1.000
==== e(  16) =    10.86866 eV ==== 
     psi = 0.100*[#  14]+0.098*[#   6]+0.098*[#   7]+0.098*[#   9]+0.075*[#  26]
          +0.075*[#  35]+0.052*[#   5]+0.052*[#   8]+0.051*[#  18]+0.051*[#  24]
          +0.051*[#  34]+0.025*[#  23]+0.025*[#  32]+0.025*[#  15]+0.025*[#  16]
          +0.025*[#  25]+0.025*[#  27]+0.025*[#  33]+0.025*[#  36]
    |psi|^2 = 1.000
==== e(  17) =    10.86866 eV ==== 
     psi = 0.128*[#   5]+0.128*[#   8]+0.125*[#  18]+0.125*[#  24]+0.125*[#  34]
          +0.050*[#  14]+0.049*[#   6]+0.049*[#   7]+0.049*[#   9]+0.037*[#  26]
          +0.037*[#  35]+0.012*[#  23]+0.012*[#  32]+0.012*[#  15]+0.012*[#  16]
          +0.012*[#  25]+0.012*[#  27]+0.012*[#  33]+0.012*[#  36]
    |psi|^2 = 1.000
==== e(  18) =    10.86866 eV ==== 
     psi = 0.135*[#  14]+0.132*[#   6]+0.132*[#   7]+0.132*[#   9]+0.101*[#  26]
          +0.101*[#  35]+0.034*[#  23]+0.034*[#  32]+0.033*[#  15]+0.033*[#  16]
          +0.033*[#  25]+0.033*[#  27]+0.033*[#  33]+0.033*[#  36]
    |psi|^2 = 1.000
==== e(  19) =    10.86866 eV ==== 
     psi = 0.136*[#   5]+0.136*[#   8]+0.133*[#  18]+0.133*[#  24]+0.133*[#  34]
          +0.044*[#  14]+0.043*[#   6]+0.043*[#   7]+0.043*[#   9]+0.033*[#  26]
          +0.033*[#  35]+0.011*[#  23]+0.011*[#  32]+0.011*[#  15]+0.011*[#  16]
          +0.011*[#  25]+0.011*[#  27]+0.011*[#  33]+0.011*[#  36]
    |psi|^2 = 1.000
==== e(  20) =    10.86866 eV ==== 
     psi = 0.088*[#   5]+0.088*[#   8]+0.087*[#  18]+0.087*[#  24]+0.087*[#  34]
          +0.076*[#  14]+0.074*[#   6]+0.074*[#   7]+0.074*[#   9]+0.057*[#  26]
          +0.057*[#  35]+0.019*[#  23]+0.019*[#  32]+0.019*[#  15]+0.019*[#  16]
          +0.019*[#  25]+0.019*[#  27]+0.019*[#  33]+0.019*[#  36]
    |psi|^2 = 1.000
==== e(  21) =    11.44985 eV ==== 
     psi = 0.332*[#  11]+0.332*[#  22]+0.332*[#  30]
    |psi|^2 = 0.996
==== e(  22) =    11.44985 eV ==== 
     psi = 0.111*[#   2]+0.111*[#   3]+0.111*[#   4]+0.111*[#  12]+0.111*[#  13]
          +0.111*[#  20]+0.111*[#  21]+0.111*[#  29]+0.111*[#  31]
    |psi|^2 = 0.996
==== e(  23) =    11.44985 eV ==== 
     psi = 0.111*[#   2]+0.111*[#   3]+0.111*[#   4]+0.111*[#  12]+0.111*[#  13]
          +0.111*[#  20]+0.111*[#  21]+0.111*[#  29]+0.111*[#  31]
    |psi|^2 = 0.996
==== e(  24) =    11.44985 eV ==== 
     psi = 0.111*[#   2]+0.111*[#   3]+0.111*[#   4]+0.111*[#  12]+0.111*[#  13]
          +0.111*[#  20]+0.111*[#  21]+0.111*[#  29]+0.111*[#  31]
    |psi|^2 = 0.996
==== e(  25) =    16.14910 eV ==== 
     psi = 0.268*[#  10]+0.268*[#  19]+0.268*[#  28]+0.021*[#   6]+0.021*[#   7]
          +0.021*[#   9]+0.021*[#  15]+0.021*[#  16]+0.021*[#  25]+0.021*[#  27]
          +0.021*[#  33]+0.021*[#  36]
    |psi|^2 = 0.990
==== e(  26) =    16.14910 eV ==== 
     psi = 0.654*[#   1]+0.051*[#  18]+0.051*[#  24]+0.051*[#  34]+0.050*[#  10]
          +0.050*[#  19]+0.050*[#  28]+0.004*[#   6]+0.004*[#   7]+0.004*[#   9]
          +0.004*[#  15]+0.004*[#  16]+0.004*[#  25]+0.004*[#  27]+0.004*[#  33]
          +0.004*[#  36]
    |psi|^2 = 0.990

Lowdin Charges: 

     Atom #   1: total charge =  10.9913, s =  0.3505, 
     Atom #   1: total charge =  10.9913, p =  1.0226, pz=  0.3409, px=  0.3409, py=  0.3409, 
     Atom #   1: total charge =  10.9913, d =  9.6181, dz2=  1.9419, dxz=  1.9114, dyz=  1.9114, dx2-y2=  1.9419, dxy=  1.9114, 
     Atom #   2: total charge =  10.9920, s =  0.3507, 
     Atom #   2: total charge =  10.9920, p =  1.0222, pz=  0.3406, px=  0.3408, py=  0.3408, 
     Atom #   2: total charge =  10.9920, d =  9.6191, dz2=  1.9420, dxz=  1.9118, dyz=  1.9118, dx2-y2=  1.9422, dxy=  1.9115, 
     Atom #   3: total charge =  10.9920, s =  0.3507, 
     Atom #   3: total charge =  10.9920, p =  1.0222, pz=  0.3408, px=  0.3408, py=  0.3406, 
     Atom #   3: total charge =  10.9920, d =  9.6191, dz2=  1.9421, dxz=  1.9115, dyz=  1.9118, dx2-y2=  1.9420, dxy=  1.9118, 
     Atom #   4: total charge =  10.9920, s =  0.3507, 
     Atom #   4: total charge =  10.9920, p =  1.0222, pz=  0.3408, px=  0.3406, py=  0.3408, 
     Atom #   4: total charge =  10.9920, d =  9.6191, dz2=  1.9421, dxz=  1.9118, dyz=  1.9115, dx2-y2=  1.9420, dxy=  1.9118, 
     Spilling Parameter:   0.0007

     PROJWFC      :     16.17s CPU      4.34s WALL


   This run was terminated on:  16:42: 1  24Jan2026            

=------------------------------------------------------------------------------=
   JOB DONE.
=------------------------------------------------------------------------------=
