
     Program PWSCF v.7.2 starts on 24Jan2026 at 12:51: 9 

     This program is part of the open-source Quantum ESPRESSO suite
     for quantum simulation of materials; please cite
         "P. Giannozzi et al., J. Phys.:Condens. Matter 21 395502 (2009);
         "P. Giannozzi et al., J. Phys.:Condens. Matter 29 465901 (2017);
         "P. Giannozzi et al., J. Chem. Phys. 152 154105 (2020);
          URL http://www.quantum-espresso.org", 
     in publications or presentations arising from this work. More details at
     http://www.quantum-espresso.org/quote

     Parallel version (MPI), running on     4 processors

     MPI processes distributed on     1 nodes
     0 MiB available memory on the printing compute node when the environment starts

     Reading input from /Users/vittoriodibona/Desktop/Tutorial_LAMMPS/Esame/CopperQE/3_electronic/scf.in

     Current dimensions of program PWSCF are:
     Max number of different atomic species (ntypx) = 10
     Max number of k-points (npk) =  40000
     Max angular momentum in pseudopotentials (lmaxx) =  4
     file Cu.pbe-dn-kjpaw_psl.1.0.0.UPF: wavefunction(s)  4S 3D renormalized
     Found identity + ( -0.5000 -0.5000  0.0000) symmetry
     This is a supercell, fractional translations are disabled

     R & G space division:  proc/nbgrp/npool/nimage =       4
     Subspace diagonalization in iterative solution of the eigenvalue problem:
     a serial algorithm will be used


     Parallelization info
     --------------------
     sticks:   dense  smooth     PW     G-vecs:    dense   smooth      PW
     Min         746     300     87                30861     7834    1235
     Max         748     301     88                30864     7839    1238
     Sum        2989    1201    349               123449    31343    4945

     Using Slab Decomposition



     bravais-lattice index     =            1
     lattice parameter (alat)  =       6.8584  a.u.
     unit-cell volume          =     322.6006 (a.u.)^3
     number of atoms/cell      =            4
     number of atomic types    =            1
     number of electrons       =        44.00
     number of Kohn-Sham states=           26
     kinetic-energy cutoff     =      80.0000  Ry
     charge density cutoff     =     800.0000  Ry
     scf convergence threshold =      1.0E-08
     mixing beta               =       0.7000
     number of iterations used =            8  plain     mixing
     Exchange-correlation= SLA  PW   PBX  PBC
                           (   1   4   3   4   0   0   0)

     celldm(1)=   6.858383  celldm(2)=   0.000000  celldm(3)=   0.000000
     celldm(4)=   0.000000  celldm(5)=   0.000000  celldm(6)=   0.000000

     crystal axes: (cart. coord. in units of alat)
               a(1) = (   1.000000   0.000000   0.000000 )  
               a(2) = (   0.000000   1.000000   0.000000 )  
               a(3) = (   0.000000   0.000000   1.000000 )  

     reciprocal axes: (cart. coord. in units 2 pi/alat)
               b(1) = (  1.000000  0.000000  0.000000 )  
               b(2) = (  0.000000  1.000000  0.000000 )  
               b(3) = (  0.000000  0.000000  1.000000 )  


     PseudoPot. # 1 for Cu read from file:
     /Users/vittoriodibona/Desktop/Tutorial_LAMMPS/Esame/CopperQE/pseudo/Cu.pbe-dn-kjpaw_psl.1.0.0.UPF
     MD5 check sum: cfffd1f38ee05704b3e17f46f1730a6f
     Pseudo is Projector augmented-wave + core cor, Zval = 11.0
     Generated using &quot;atomic&quot; code by A. Dal Corso  v.6.3
     Shape of augmentation charge: PSQ
     Using radial grid of 1199 points,  6 beta functions with: 
                l(1) =   0
                l(2) =   0
                l(3) =   1
                l(4) =   1
                l(5) =   2
                l(6) =   2
     Q(r) pseudized with 0 coefficients 


     atomic species   valence    mass     pseudopotential
        Cu            11.00    63.54600     Cu( 1.00)

     48 Sym. Ops., with inversion, found


                                    s                        frac. trans.

      isym =  1     identity                                     

 cryst.   s( 1) = (     1          0          0      )
                  (     0          1          0      )
                  (     0          0          1      )

 cart.    s( 1) = (  1.0000000  0.0000000  0.0000000 )
                  (  0.0000000  1.0000000  0.0000000 )
                  (  0.0000000  0.0000000  1.0000000 )


      isym =  2     180 deg rotation - cart. axis [0,0,1]        

 cryst.   s( 2) = (    -1          0          0      )
                  (     0         -1          0      )
                  (     0          0          1      )

 cart.    s( 2) = ( -1.0000000  0.0000000  0.0000000 )
                  (  0.0000000 -1.0000000  0.0000000 )
                  (  0.0000000  0.0000000  1.0000000 )


      isym =  3     180 deg rotation - cart. axis [0,1,0]        

 cryst.   s( 3) = (    -1          0          0      )
                  (     0          1          0      )
                  (     0          0         -1      )

 cart.    s( 3) = ( -1.0000000  0.0000000  0.0000000 )
                  (  0.0000000  1.0000000  0.0000000 )
                  (  0.0000000  0.0000000 -1.0000000 )


      isym =  4     180 deg rotation - cart. axis [1,0,0]        

 cryst.   s( 4) = (     1          0          0      )
                  (     0         -1          0      )
                  (     0          0         -1      )

 cart.    s( 4) = (  1.0000000  0.0000000  0.0000000 )
                  (  0.0000000 -1.0000000  0.0000000 )
                  (  0.0000000  0.0000000 -1.0000000 )


      isym =  5     180 deg rotation - cart. axis [1,1,0]        

 cryst.   s( 5) = (     0          1          0      )
                  (     1          0          0      )
                  (     0          0         -1      )

 cart.    s( 5) = (  0.0000000  1.0000000  0.0000000 )
                  (  1.0000000  0.0000000  0.0000000 )
                  (  0.0000000  0.0000000 -1.0000000 )


      isym =  6     180 deg rotation - cart. axis [1,-1,0]       

 cryst.   s( 6) = (     0         -1          0      )
                  (    -1          0          0      )
                  (     0          0         -1      )

 cart.    s( 6) = (  0.0000000 -1.0000000  0.0000000 )
                  ( -1.0000000  0.0000000  0.0000000 )
                  (  0.0000000  0.0000000 -1.0000000 )


      isym =  7      90 deg rotation - cart. axis [0,0,-1]       

 cryst.   s( 7) = (     0         -1          0      )
                  (     1          0          0      )
                  (     0          0          1      )

 cart.    s( 7) = (  0.0000000  1.0000000  0.0000000 )
                  ( -1.0000000  0.0000000  0.0000000 )
                  (  0.0000000  0.0000000  1.0000000 )


      isym =  8      90 deg rotation - cart. axis [0,0,1]        

 cryst.   s( 8) = (     0          1          0      )
                  (    -1          0          0      )
                  (     0          0          1      )

 cart.    s( 8) = (  0.0000000 -1.0000000  0.0000000 )
                  (  1.0000000  0.0000000  0.0000000 )
                  (  0.0000000  0.0000000  1.0000000 )


      isym =  9     180 deg rotation - cart. axis [1,0,1]        

 cryst.   s( 9) = (     0          0          1      )
                  (     0         -1          0      )
                  (     1          0          0      )

 cart.    s( 9) = (  0.0000000  0.0000000  1.0000000 )
                  (  0.0000000 -1.0000000  0.0000000 )
                  (  1.0000000  0.0000000  0.0000000 )


      isym = 10     180 deg rotation - cart. axis [-1,0,1]       

 cryst.   s(10) = (     0          0         -1      )
                  (     0         -1          0      )
                  (    -1          0          0      )

 cart.    s(10) = (  0.0000000  0.0000000 -1.0000000 )
                  (  0.0000000 -1.0000000  0.0000000 )
                  ( -1.0000000  0.0000000  0.0000000 )


      isym = 11      90 deg rotation - cart. axis [0,1,0]        

 cryst.   s(11) = (     0          0         -1      )
                  (     0          1          0      )
                  (     1          0          0      )

 cart.    s(11) = (  0.0000000  0.0000000  1.0000000 )
                  (  0.0000000  1.0000000  0.0000000 )
                  ( -1.0000000  0.0000000  0.0000000 )


      isym = 12      90 deg rotation - cart. axis [0,-1,0]       

 cryst.   s(12) = (     0          0          1      )
                  (     0          1          0      )
                  (    -1          0          0      )

 cart.    s(12) = (  0.0000000  0.0000000 -1.0000000 )
                  (  0.0000000  1.0000000  0.0000000 )
                  (  1.0000000  0.0000000  0.0000000 )


      isym = 13     180 deg rotation - cart. axis [0,1,1]        

 cryst.   s(13) = (    -1          0          0      )
                  (     0          0          1      )
                  (     0          1          0      )

 cart.    s(13) = ( -1.0000000  0.0000000  0.0000000 )
                  (  0.0000000  0.0000000  1.0000000 )
                  (  0.0000000  1.0000000  0.0000000 )


      isym = 14     180 deg rotation - cart. axis [0,1,-1]       

 cryst.   s(14) = (    -1          0          0      )
                  (     0          0         -1      )
                  (     0         -1          0      )

 cart.    s(14) = ( -1.0000000  0.0000000  0.0000000 )
                  (  0.0000000  0.0000000 -1.0000000 )
                  (  0.0000000 -1.0000000  0.0000000 )


      isym = 15      90 deg rotation - cart. axis [-1,0,0]       

 cryst.   s(15) = (     1          0          0      )
                  (     0          0         -1      )
                  (     0          1          0      )

 cart.    s(15) = (  1.0000000  0.0000000  0.0000000 )
                  (  0.0000000  0.0000000  1.0000000 )
                  (  0.0000000 -1.0000000  0.0000000 )


      isym = 16      90 deg rotation - cart. axis [1,0,0]        

 cryst.   s(16) = (     1          0          0      )
                  (     0          0          1      )
                  (     0         -1          0      )

 cart.    s(16) = (  1.0000000  0.0000000  0.0000000 )
                  (  0.0000000  0.0000000 -1.0000000 )
                  (  0.0000000  1.0000000  0.0000000 )


      isym = 17     120 deg rotation - cart. axis [-1,-1,-1]     

 cryst.   s(17) = (     0          0          1      )
                  (     1          0          0      )
                  (     0          1          0      )

 cart.    s(17) = (  0.0000000  1.0000000  0.0000000 )
                  (  0.0000000  0.0000000  1.0000000 )
                  (  1.0000000  0.0000000  0.0000000 )


      isym = 18     120 deg rotation - cart. axis [-1,1,1]       

 cryst.   s(18) = (     0          0         -1      )
                  (    -1          0          0      )
                  (     0          1          0      )

 cart.    s(18) = (  0.0000000 -1.0000000  0.0000000 )
                  (  0.0000000  0.0000000  1.0000000 )
                  ( -1.0000000  0.0000000  0.0000000 )


      isym = 19     120 deg rotation - cart. axis [1,1,-1]       

 cryst.   s(19) = (     0          0         -1      )
                  (     1          0          0      )
                  (     0         -1          0      )

 cart.    s(19) = (  0.0000000  1.0000000  0.0000000 )
                  (  0.0000000  0.0000000 -1.0000000 )
                  ( -1.0000000  0.0000000  0.0000000 )


      isym = 20     120 deg rotation - cart. axis [1,-1,1]       

 cryst.   s(20) = (     0          0          1      )
                  (    -1          0          0      )
                  (     0         -1          0      )

 cart.    s(20) = (  0.0000000 -1.0000000  0.0000000 )
                  (  0.0000000  0.0000000 -1.0000000 )
                  (  1.0000000  0.0000000  0.0000000 )


      isym = 21     120 deg rotation - cart. axis [1,1,1]        

 cryst.   s(21) = (     0          1          0      )
                  (     0          0          1      )
                  (     1          0          0      )

 cart.    s(21) = (  0.0000000  0.0000000  1.0000000 )
                  (  1.0000000  0.0000000  0.0000000 )
                  (  0.0000000  1.0000000  0.0000000 )


      isym = 22     120 deg rotation - cart. axis [-1,1,-1]      

 cryst.   s(22) = (     0         -1          0      )
                  (     0          0         -1      )
                  (     1          0          0      )

 cart.    s(22) = (  0.0000000  0.0000000  1.0000000 )
                  ( -1.0000000  0.0000000  0.0000000 )
                  (  0.0000000 -1.0000000  0.0000000 )


      isym = 23     120 deg rotation - cart. axis [1,-1,-1]      

 cryst.   s(23) = (     0         -1          0      )
                  (     0          0          1      )
                  (    -1          0          0      )

 cart.    s(23) = (  0.0000000  0.0000000 -1.0000000 )
                  ( -1.0000000  0.0000000  0.0000000 )
                  (  0.0000000  1.0000000  0.0000000 )


      isym = 24     120 deg rotation - cart. axis [-1,-1,1]      

 cryst.   s(24) = (     0          1          0      )
                  (     0          0         -1      )
                  (    -1          0          0      )

 cart.    s(24) = (  0.0000000  0.0000000 -1.0000000 )
                  (  1.0000000  0.0000000  0.0000000 )
                  (  0.0000000 -1.0000000  0.0000000 )


      isym = 25     inversion                                    

 cryst.   s(25) = (    -1          0          0      )
                  (     0         -1          0      )
                  (     0          0         -1      )

 cart.    s(25) = ( -1.0000000  0.0000000  0.0000000 )
                  (  0.0000000 -1.0000000  0.0000000 )
                  (  0.0000000  0.0000000 -1.0000000 )


      isym = 26     inv. 180 deg rotation - cart. axis [0,0,1]   

 cryst.   s(26) = (     1          0          0      )
                  (     0          1          0      )
                  (     0          0         -1      )

 cart.    s(26) = (  1.0000000  0.0000000  0.0000000 )
                  (  0.0000000  1.0000000  0.0000000 )
                  (  0.0000000  0.0000000 -1.0000000 )


      isym = 27     inv. 180 deg rotation - cart. axis [0,1,0]   

 cryst.   s(27) = (     1          0          0      )
                  (     0         -1          0      )
                  (     0          0          1      )

 cart.    s(27) = (  1.0000000  0.0000000  0.0000000 )
                  (  0.0000000 -1.0000000  0.0000000 )
                  (  0.0000000  0.0000000  1.0000000 )


      isym = 28     inv. 180 deg rotation - cart. axis [1,0,0]   

 cryst.   s(28) = (    -1          0          0      )
                  (     0          1          0      )
                  (     0          0          1      )

 cart.    s(28) = ( -1.0000000  0.0000000  0.0000000 )
                  (  0.0000000  1.0000000  0.0000000 )
                  (  0.0000000  0.0000000  1.0000000 )


      isym = 29     inv. 180 deg rotation - cart. axis [1,1,0]   

 cryst.   s(29) = (     0         -1          0      )
                  (    -1          0          0      )
                  (     0          0          1      )

 cart.    s(29) = (  0.0000000 -1.0000000  0.0000000 )
                  ( -1.0000000  0.0000000  0.0000000 )
                  (  0.0000000  0.0000000  1.0000000 )


      isym = 30     inv. 180 deg rotation - cart. axis [1,-1,0]  

 cryst.   s(30) = (     0          1          0      )
                  (     1          0          0      )
                  (     0          0          1      )

 cart.    s(30) = (  0.0000000  1.0000000  0.0000000 )
                  (  1.0000000  0.0000000  0.0000000 )
                  (  0.0000000  0.0000000  1.0000000 )


      isym = 31     inv.  90 deg rotation - cart. axis [0,0,-1]  

 cryst.   s(31) = (     0          1          0      )
                  (    -1          0          0      )
                  (     0          0         -1      )

 cart.    s(31) = (  0.0000000 -1.0000000  0.0000000 )
                  (  1.0000000  0.0000000  0.0000000 )
                  (  0.0000000  0.0000000 -1.0000000 )


      isym = 32     inv.  90 deg rotation - cart. axis [0,0,1]   

 cryst.   s(32) = (     0         -1          0      )
                  (     1          0          0      )
                  (     0          0         -1      )

 cart.    s(32) = (  0.0000000  1.0000000  0.0000000 )
                  ( -1.0000000  0.0000000  0.0000000 )
                  (  0.0000000  0.0000000 -1.0000000 )


      isym = 33     inv. 180 deg rotation - cart. axis [1,0,1]   

 cryst.   s(33) = (     0          0         -1      )
                  (     0          1          0      )
                  (    -1          0          0      )

 cart.    s(33) = (  0.0000000  0.0000000 -1.0000000 )
                  (  0.0000000  1.0000000  0.0000000 )
                  ( -1.0000000  0.0000000  0.0000000 )


      isym = 34     inv. 180 deg rotation - cart. axis [-1,0,1]  

 cryst.   s(34) = (     0          0          1      )
                  (     0          1          0      )
                  (     1          0          0      )

 cart.    s(34) = (  0.0000000  0.0000000  1.0000000 )
                  (  0.0000000  1.0000000  0.0000000 )
                  (  1.0000000  0.0000000  0.0000000 )


      isym = 35     inv.  90 deg rotation - cart. axis [0,1,0]   

 cryst.   s(35) = (     0          0          1      )
                  (     0         -1          0      )
                  (    -1          0          0      )

 cart.    s(35) = (  0.0000000  0.0000000 -1.0000000 )
                  (  0.0000000 -1.0000000  0.0000000 )
                  (  1.0000000  0.0000000  0.0000000 )


      isym = 36     inv.  90 deg rotation - cart. axis [0,-1,0]  

 cryst.   s(36) = (     0          0         -1      )
                  (     0         -1          0      )
                  (     1          0          0      )

 cart.    s(36) = (  0.0000000  0.0000000  1.0000000 )
                  (  0.0000000 -1.0000000  0.0000000 )
                  ( -1.0000000  0.0000000  0.0000000 )


      isym = 37     inv. 180 deg rotation - cart. axis [0,1,1]   

 cryst.   s(37) = (     1          0          0      )
                  (     0          0         -1      )
                  (     0         -1          0      )

 cart.    s(37) = (  1.0000000  0.0000000  0.0000000 )
                  (  0.0000000  0.0000000 -1.0000000 )
                  (  0.0000000 -1.0000000  0.0000000 )


      isym = 38     inv. 180 deg rotation - cart. axis [0,1,-1]  

 cryst.   s(38) = (     1          0          0      )
                  (     0          0          1      )
                  (     0          1          0      )

 cart.    s(38) = (  1.0000000  0.0000000  0.0000000 )
                  (  0.0000000  0.0000000  1.0000000 )
                  (  0.0000000  1.0000000  0.0000000 )


      isym = 39     inv.  90 deg rotation - cart. axis [-1,0,0]  

 cryst.   s(39) = (    -1          0          0      )
                  (     0          0          1      )
                  (     0         -1          0      )

 cart.    s(39) = ( -1.0000000  0.0000000  0.0000000 )
                  (  0.0000000  0.0000000 -1.0000000 )
                  (  0.0000000  1.0000000  0.0000000 )


      isym = 40     inv.  90 deg rotation - cart. axis [1,0,0]   

 cryst.   s(40) = (    -1          0          0      )
                  (     0          0         -1      )
                  (     0          1          0      )

 cart.    s(40) = ( -1.0000000  0.0000000  0.0000000 )
                  (  0.0000000  0.0000000  1.0000000 )
                  (  0.0000000 -1.0000000  0.0000000 )


      isym = 41     inv. 120 deg rotation - cart. axis [-1,-1,-1]

 cryst.   s(41) = (     0          0         -1      )
                  (    -1          0          0      )
                  (     0         -1          0      )

 cart.    s(41) = (  0.0000000 -1.0000000  0.0000000 )
                  (  0.0000000  0.0000000 -1.0000000 )
                  ( -1.0000000  0.0000000  0.0000000 )


      isym = 42     inv. 120 deg rotation - cart. axis [-1,1,1]  

 cryst.   s(42) = (     0          0          1      )
                  (     1          0          0      )
                  (     0         -1          0      )

 cart.    s(42) = (  0.0000000  1.0000000  0.0000000 )
                  (  0.0000000  0.0000000 -1.0000000 )
                  (  1.0000000  0.0000000  0.0000000 )


      isym = 43     inv. 120 deg rotation - cart. axis [1,1,-1]  

 cryst.   s(43) = (     0          0          1      )
                  (    -1          0          0      )
                  (     0          1          0      )

 cart.    s(43) = (  0.0000000 -1.0000000  0.0000000 )
                  (  0.0000000  0.0000000  1.0000000 )
                  (  1.0000000  0.0000000  0.0000000 )


      isym = 44     inv. 120 deg rotation - cart. axis [1,-1,1]  

 cryst.   s(44) = (     0          0         -1      )
                  (     1          0          0      )
                  (     0          1          0      )

 cart.    s(44) = (  0.0000000  1.0000000  0.0000000 )
                  (  0.0000000  0.0000000  1.0000000 )
                  ( -1.0000000  0.0000000  0.0000000 )


      isym = 45     inv. 120 deg rotation - cart. axis [1,1,1]   

 cryst.   s(45) = (     0         -1          0      )
                  (     0          0         -1      )
                  (    -1          0          0      )

 cart.    s(45) = (  0.0000000  0.0000000 -1.0000000 )
                  ( -1.0000000  0.0000000  0.0000000 )
                  (  0.0000000 -1.0000000  0.0000000 )


      isym = 46     inv. 120 deg rotation - cart. axis [-1,1,-1] 

 cryst.   s(46) = (     0          1          0      )
                  (     0          0          1      )
                  (    -1          0          0      )

 cart.    s(46) = (  0.0000000  0.0000000 -1.0000000 )
                  (  1.0000000  0.0000000  0.0000000 )
                  (  0.0000000  1.0000000  0.0000000 )


      isym = 47     inv. 120 deg rotation - cart. axis [1,-1,-1] 

 cryst.   s(47) = (     0          1          0      )
                  (     0          0         -1      )
                  (     1          0          0      )

 cart.    s(47) = (  0.0000000  0.0000000  1.0000000 )
                  (  1.0000000  0.0000000  0.0000000 )
                  (  0.0000000 -1.0000000  0.0000000 )


      isym = 48     inv. 120 deg rotation - cart. axis [-1,-1,1] 

 cryst.   s(48) = (     0         -1          0      )
                  (     0          0          1      )
                  (     1          0          0      )

 cart.    s(48) = (  0.0000000  0.0000000  1.0000000 )
                  ( -1.0000000  0.0000000  0.0000000 )
                  (  0.0000000  1.0000000  0.0000000 )


     point group O_h (m-3m) 
     there are 10 classes
     the character table:

       E     8C3   3C2   6C4   6C2'  i     8S6   3s_h  6S4   6s_d 
A_1g   1.00  1.00  1.00  1.00  1.00  1.00  1.00  1.00  1.00  1.00
A_2g   1.00  1.00  1.00 -1.00 -1.00  1.00  1.00  1.00 -1.00 -1.00
E_g    2.00 -1.00  2.00  0.00  0.00  2.00 -1.00  2.00  0.00  0.00
T_1g   3.00  0.00 -1.00  1.00 -1.00  3.00  0.00 -1.00  1.00 -1.00
T_2g   3.00  0.00 -1.00 -1.00  1.00  3.00  0.00 -1.00 -1.00  1.00
A_1u   1.00  1.00  1.00  1.00  1.00 -1.00 -1.00 -1.00 -1.00 -1.00
A_2u   1.00  1.00  1.00 -1.00 -1.00 -1.00 -1.00 -1.00  1.00  1.00
E_u    2.00 -1.00  2.00  0.00  0.00 -2.00  1.00 -2.00  0.00  0.00
T_1u   3.00  0.00 -1.00  1.00 -1.00 -3.00  0.00  1.00 -1.00  1.00
T_2u   3.00  0.00 -1.00 -1.00  1.00 -3.00  0.00  1.00  1.00 -1.00

     the symmetry operations in each class and the name of the first element:

     E        1
          identity                                               
     8C3     17   19   20   18   24   21   22   23
          120 deg rotation - cart. axis [-1,-1,-1]               
     3C2      2    4    3
          180 deg rotation - cart. axis [0,0,1]                  
     6C4      7    8   15   16   12   11
           90 deg rotation - cart. axis [0,0,-1]                 
     6C2'     5    6   14   13   10    9
          180 deg rotation - cart. axis [1,1,0]                  
     i       25
          inversion                                              
     8S6     41   43   44   42   48   45   46   47
          inv. 120 deg rotation - cart. axis [-1,-1,-1]          
     3s_h    26   28   27
          inv. 180 deg rotation - cart. axis [0,0,1]             
     6S4     31   32   39   40   36   35
          inv.  90 deg rotation - cart. axis [0,0,-1]            
     6s_d    29   30   38   37   34   33
          inv. 180 deg rotation - cart. axis [1,1,0]             

   Cartesian axes

     site n.     atom                  positions (alat units)
         1           Cu  tau(   1) = (   0.0000000   0.0000000   0.0000000  )
         2           Cu  tau(   2) = (   0.5000000   0.5000000   0.0000000  )
         3           Cu  tau(   3) = (   0.5000000   0.0000000   0.5000000  )
         4           Cu  tau(   4) = (   0.0000000   0.5000000   0.5000000  )

   Crystallographic axes

     site n.     atom                  positions (cryst. coord.)
         1           Cu  tau(   1) = (  0.0000000  0.0000000  0.0000000  )
         2           Cu  tau(   2) = (  0.5000000  0.5000000  0.0000000  )
         3           Cu  tau(   3) = (  0.5000000  0.0000000  0.5000000  )
         4           Cu  tau(   4) = (  0.0000000  0.5000000  0.5000000  )

     number of k points=    20  Marzari-Vanderbilt smearing, width (Ry)=  0.0100
                       cart. coord. in units 2pi/alat
        k(    1) = (   0.0625000   0.0625000   0.0625000), wk =   0.0312500
        k(    2) = (   0.0625000   0.0625000   0.1875000), wk =   0.0937500
        k(    3) = (   0.0625000   0.0625000   0.3125000), wk =   0.0937500
        k(    4) = (   0.0625000   0.0625000   0.4375000), wk =   0.0937500
        k(    5) = (   0.0625000   0.1875000   0.1875000), wk =   0.0937500
        k(    6) = (   0.0625000   0.1875000   0.3125000), wk =   0.1875000
        k(    7) = (   0.0625000   0.1875000   0.4375000), wk =   0.1875000
        k(    8) = (   0.0625000   0.3125000   0.3125000), wk =   0.0937500
        k(    9) = (   0.0625000   0.3125000   0.4375000), wk =   0.1875000
        k(   10) = (   0.0625000   0.4375000   0.4375000), wk =   0.0937500
        k(   11) = (   0.1875000   0.1875000   0.1875000), wk =   0.0312500
        k(   12) = (   0.1875000   0.1875000   0.3125000), wk =   0.0937500
        k(   13) = (   0.1875000   0.1875000   0.4375000), wk =   0.0937500
        k(   14) = (   0.1875000   0.3125000   0.3125000), wk =   0.0937500
        k(   15) = (   0.1875000   0.3125000   0.4375000), wk =   0.1875000
        k(   16) = (   0.1875000   0.4375000   0.4375000), wk =   0.0937500
        k(   17) = (   0.3125000   0.3125000   0.3125000), wk =   0.0312500
        k(   18) = (   0.3125000   0.3125000   0.4375000), wk =   0.0937500
        k(   19) = (   0.3125000   0.4375000   0.4375000), wk =   0.0937500
        k(   20) = (   0.4375000   0.4375000   0.4375000), wk =   0.0312500

                       cryst. coord.
        k(    1) = (   0.0625000   0.0625000   0.0625000), wk =   0.0312500
        k(    2) = (   0.0625000   0.0625000   0.1875000), wk =   0.0937500
        k(    3) = (   0.0625000   0.0625000   0.3125000), wk =   0.0937500
        k(    4) = (   0.0625000   0.0625000   0.4375000), wk =   0.0937500
        k(    5) = (   0.0625000   0.1875000   0.1875000), wk =   0.0937500
        k(    6) = (   0.0625000   0.1875000   0.3125000), wk =   0.1875000
        k(    7) = (   0.0625000   0.1875000   0.4375000), wk =   0.1875000
        k(    8) = (   0.0625000   0.3125000   0.3125000), wk =   0.0937500
        k(    9) = (   0.0625000   0.3125000   0.4375000), wk =   0.1875000
        k(   10) = (   0.0625000   0.4375000   0.4375000), wk =   0.0937500
        k(   11) = (   0.1875000   0.1875000   0.1875000), wk =   0.0312500
        k(   12) = (   0.1875000   0.1875000   0.3125000), wk =   0.0937500
        k(   13) = (   0.1875000   0.1875000   0.4375000), wk =   0.0937500
        k(   14) = (   0.1875000   0.3125000   0.3125000), wk =   0.0937500
        k(   15) = (   0.1875000   0.3125000   0.4375000), wk =   0.1875000
        k(   16) = (   0.1875000   0.4375000   0.4375000), wk =   0.0937500
        k(   17) = (   0.3125000   0.3125000   0.3125000), wk =   0.0312500
        k(   18) = (   0.3125000   0.3125000   0.4375000), wk =   0.0937500
        k(   19) = (   0.3125000   0.4375000   0.4375000), wk =   0.0937500
        k(   20) = (   0.4375000   0.4375000   0.4375000), wk =   0.0312500

     Dense  grid:   123449 G-vectors     FFT dimensions: (  64,  64,  64)

     Smooth grid:    31343 G-vectors     FFT dimensions: (  40,  40,  40)

     Dynamical RAM for                 wfc:       0.39 MB

     Dynamical RAM for     wfc (w. buffer):       8.11 MB

     Dynamical RAM for           str. fact:       0.47 MB

     Dynamical RAM for           local pot:       0.00 MB

     Dynamical RAM for          nlocal pot:       1.07 MB

     Dynamical RAM for                qrad:       2.27 MB

     Dynamical RAM for          rho,v,vnew:       2.91 MB

     Dynamical RAM for               rhoin:       0.97 MB

     Dynamical RAM for            rho*nmix:       7.54 MB

     Dynamical RAM for           G-vectors:       1.83 MB

     Dynamical RAM for          h,s,v(r/c):       0.12 MB

     Dynamical RAM for          <psi|beta>:       0.03 MB

     Dynamical RAM for                 psi:       0.77 MB

     Dynamical RAM for                hpsi:       0.77 MB

     Dynamical RAM for                spsi:       0.77 MB

     Dynamical RAM for      wfcinit/wfcrot:       1.10 MB

     Dynamical RAM for           addusdens:      89.48 MB

     Estimated static dynamical RAM per process >      21.08 MB

     Estimated max dynamical RAM per process >     118.09 MB

     Estimated total dynamical RAM >     472.36 MB

     Initial potential from superposition of free atoms

     starting charge      43.9991, renormalised to      44.0000
     Starting wfcs are   36 randomized atomic wfcs
     Checking if some PAW data can be deallocated... 

     total cpu time spent up to now is       94.2 secs

     Self-consistent Calculation

     iteration #  1     ecut=    80.00 Ry     beta= 0.70
     Davidson diagonalization with overlap

---- Real-time Memory Report at c_bands before calling an iterative solver
             0 MiB given to the printing process from OS
             0 MiB allocation reported by mallinfo(arena+hblkhd)
             0 MiB available memory on the node where the printing process lives
------------------
     ethr =  1.00E-02,  avg # of iterations =  2.5

     Threshold (ethr) on eigenvalues was too large:
     Diagonalizing with lowered threshold

     Davidson diagonalization with overlap

---- Real-time Memory Report at c_bands before calling an iterative solver
             0 MiB given to the printing process from OS
             0 MiB allocation reported by mallinfo(arena+hblkhd)
             0 MiB available memory on the node where the printing process lives
------------------
     ethr =  3.63E-04,  avg # of iterations =  2.9

     total cpu time spent up to now is      587.3 secs

     total energy              =    -852.25832766 Ry
     estimated scf accuracy    <       0.22344972 Ry

     iteration #  2     ecut=    80.00 Ry     beta= 0.70
     Davidson diagonalization with overlap

---- Real-time Memory Report at c_bands before calling an iterative solver
             0 MiB given to the printing process from OS
             0 MiB allocation reported by mallinfo(arena+hblkhd)
             0 MiB available memory on the node where the printing process lives
------------------
     ethr =  5.08E-04,  avg # of iterations =  2.9

     total cpu time spent up to now is      880.4 secs

     total energy              =    -852.27005817 Ry
     estimated scf accuracy    <       0.75415806 Ry

     iteration #  3     ecut=    80.00 Ry     beta= 0.70
     Davidson diagonalization with overlap

---- Real-time Memory Report at c_bands before calling an iterative solver
             0 MiB given to the printing process from OS
             0 MiB allocation reported by mallinfo(arena+hblkhd)
             0 MiB available memory on the node where the printing process lives
------------------
     ethr =  5.08E-04,  avg # of iterations =  2.0

     total cpu time spent up to now is     1149.0 secs

     total energy              =    -852.38775123 Ry
     estimated scf accuracy    <       0.00088944 Ry

     iteration #  4     ecut=    80.00 Ry     beta= 0.70
     Davidson diagonalization with overlap

---- Real-time Memory Report at c_bands before calling an iterative solver
             0 MiB given to the printing process from OS
             0 MiB allocation reported by mallinfo(arena+hblkhd)
             0 MiB available memory on the node where the printing process lives
------------------
     ethr =  2.02E-06,  avg # of iterations =  6.6

     total cpu time spent up to now is     1639.2 secs

     total energy              =    -852.38878976 Ry
     estimated scf accuracy    <       0.00117523 Ry

     iteration #  5     ecut=    80.00 Ry     beta= 0.70
     Davidson diagonalization with overlap

---- Real-time Memory Report at c_bands before calling an iterative solver
             0 MiB given to the printing process from OS
             0 MiB allocation reported by mallinfo(arena+hblkhd)
             0 MiB available memory on the node where the printing process lives
------------------
     ethr =  2.02E-06,  avg # of iterations =  2.0

     total cpu time spent up to now is     1871.2 secs

     total energy              =    -852.38887010 Ry
     estimated scf accuracy    <       0.00008688 Ry

     iteration #  6     ecut=    80.00 Ry     beta= 0.70
     Davidson diagonalization with overlap

---- Real-time Memory Report at c_bands before calling an iterative solver
             0 MiB given to the printing process from OS
             0 MiB allocation reported by mallinfo(arena+hblkhd)
             0 MiB available memory on the node where the printing process lives
------------------
     ethr =  1.97E-07,  avg # of iterations =  2.3

     total cpu time spent up to now is     2138.1 secs

     total energy              =    -852.38888911 Ry
     estimated scf accuracy    <       0.00000141 Ry

     iteration #  7     ecut=    80.00 Ry     beta= 0.70
     Davidson diagonalization with overlap

---- Real-time Memory Report at c_bands before calling an iterative solver
             0 MiB given to the printing process from OS
             0 MiB allocation reported by mallinfo(arena+hblkhd)
             0 MiB available memory on the node where the printing process lives
------------------
     ethr =  3.20E-09,  avg # of iterations =  4.2

     total cpu time spent up to now is     2486.4 secs

     total energy              =    -852.38888996 Ry
     estimated scf accuracy    <       0.00000008 Ry

     iteration #  8     ecut=    80.00 Ry     beta= 0.70
     Davidson diagonalization with overlap

---- Real-time Memory Report at c_bands before calling an iterative solver
             0 MiB given to the printing process from OS
             0 MiB allocation reported by mallinfo(arena+hblkhd)
             0 MiB available memory on the node where the printing process lives
------------------
     ethr =  1.73E-10,  avg # of iterations =  1.9

     total cpu time spent up to now is     2705.7 secs

     total energy              =    -852.38888993 Ry
     estimated scf accuracy    <       0.00000014 Ry

     iteration #  9     ecut=    80.00 Ry     beta= 0.70
     Davidson diagonalization with overlap

---- Real-time Memory Report at c_bands before calling an iterative solver
             0 MiB given to the printing process from OS
             0 MiB allocation reported by mallinfo(arena+hblkhd)
             0 MiB available memory on the node where the printing process lives
------------------
     ethr =  1.73E-10,  avg # of iterations =  1.2

     total cpu time spent up to now is     2902.7 secs

     total energy              =    -852.38888993 Ry
     estimated scf accuracy    <       0.00000003 Ry

     iteration # 10     ecut=    80.00 Ry     beta= 0.70
     Davidson diagonalization with overlap

---- Real-time Memory Report at c_bands before calling an iterative solver
             0 MiB given to the printing process from OS
             0 MiB allocation reported by mallinfo(arena+hblkhd)
             0 MiB available memory on the node where the printing process lives
------------------
     ethr =  6.74E-11,  avg # of iterations =  2.1

     total cpu time spent up to now is     3163.3 secs

     End of self-consistent calculation

          k = 0.0625 0.0625 0.0625 (  3887 PWs)   bands (ev):

     3.2889   7.6899   7.6899   7.6899   8.1443   8.1443   8.1443   9.4593
     9.5159   9.5159  10.2947  10.2947  10.8072  10.8072  10.8072  10.8302
    10.8302  10.8302  10.9848  10.9848  10.9848  13.8723  13.8723  13.8723
    19.9178  19.9178

     occupation numbers 
     1.0000   1.0000   1.0000   1.0000   1.0000   1.0000   1.0000   1.0000
     1.0000   1.0000   1.0000   1.0000   1.0000   1.0000   1.0000   1.0000
     1.0000   1.0000   1.0000   1.0000   1.0000   0.0000   0.0000   0.0000
     0.0000   0.0000

          k = 0.0625 0.0625 0.1875 (  3892 PWs)   bands (ev):

     3.6607   7.6549   7.8569   7.8569   8.2405   8.2469   8.2469   9.3611
     9.5935   9.5965  10.2030  10.3372  10.3372  10.3406  10.6246  10.6920
    10.6920  10.7114  10.8978  10.9758  10.9758  12.3268  14.6694  14.6694
    20.0950  20.0950

     occupation numbers 
     1.0000   1.0000   1.0000   1.0000   1.0000   1.0000   1.0000   1.0000
     1.0000   1.0000   1.0000   1.0000   1.0000   1.0000   1.0000   1.0000
     1.0000   1.0000   1.0000   1.0000   1.0000   0.7578   0.0000   0.0000
     0.0000   0.0000

          k = 0.0625 0.0625 0.3125 (  3900 PWs)   bands (ev):

     4.3834   7.3736   8.1323   8.1323   8.4202   8.4534   8.4534   9.1694
     9.7356   9.7356   9.7389   9.7533  10.0667  10.1723  10.4257  10.4845
    10.4845  10.5059  10.7833  10.9725  10.9725  11.0322  15.8656  15.8656
    20.4095  20.4095

     occupation numbers 
     1.0000   1.0000   1.0000   1.0000   1.0000   1.0000   1.0000   1.0000
     1.0000   1.0000   1.0000   1.0000   1.0000   1.0000   1.0000   1.0000
     1.0000   1.0000   1.0000   1.0000   1.0000   1.0000   0.0000   0.0000
     0.0000   0.0000

          k = 0.0625 0.0625 0.4375 (  3908 PWs)   bands (ev):

     5.3978   6.5343   8.3762   8.3762   8.6588   8.7617   8.7617   8.9218
     9.1991   9.1991   9.7729   9.7845   9.9754  10.1232  10.2398  10.2934
    10.2934  10.4491  10.5377  10.6615  10.9715  10.9715  17.2700  17.2700
    18.8733  18.8733

     occupation numbers 
     1.0000   1.0000   1.0000   1.0000   1.0000   1.0000   1.0000   1.0000
     1.0000   1.0000   1.0000   1.0000   1.0000   1.0000   1.0000   1.0000
     1.0000   1.0000   1.0000   1.0000   1.0000   1.0000   0.0000   0.0000
     0.0000   0.0000

          k = 0.0625 0.1875 0.1875 (  3903 PWs)   bands (ev):

     4.0247   7.8401   7.8401   8.0052   8.3315   8.3349   8.3349   9.3108
     9.6319   9.6332  10.0766  10.0833  10.0833  10.1903  10.3526  10.5661
    10.6256  10.6256  10.8853  10.8853  10.9079  13.0645  13.0645  15.3233
    20.1146  20.4813

     occupation numbers 
     1.0000   1.0000   1.0000   1.0000   1.0000   1.0000   1.0000   1.0000
     1.0000   1.0000   1.0000   1.0000   1.0000   1.0000   1.0000   1.0000
     1.0000   1.0000   1.0000   1.0000   1.0000   0.0000   0.0000   0.0000
     0.0000   0.0000

          k = 0.0625 0.1875 0.3125 (  3897 PWs)   bands (ev):

     4.7303   7.5948   8.1507   8.2537   8.4903   8.4996   8.5230   9.1635
     9.5196   9.6393   9.6786   9.7116   9.7602  10.1200  10.3946  10.4305
    10.4603  10.4744  10.7447  10.8531  10.8598  11.6739  14.0622  16.3796
    18.3326  20.7580

     occupation numbers 
     1.0000   1.0000   1.0000   1.0000   1.0000   1.0000   1.0000   1.0000
     1.0000   1.0000   1.0000   1.0000   1.0000   1.0000   1.0000   1.0000
     1.0000   1.0000   1.0000   1.0000   1.0000   1.0000   0.0000   0.0000
     0.0000   0.0000

          k = 0.0625 0.1875 0.4375 (  3903 PWs)   bands (ev):

     5.7143   6.8042   8.4564   8.5137   8.6583   8.7163   8.7637   8.9506
     9.0789   9.2099   9.5416   9.6211   9.9466  10.1784  10.2220  10.2460
    10.2762  10.5068  10.6605  10.8394  10.8404  10.9575  15.2274  16.5598
    17.8430  19.3312

     occupation numbers 
     1.0000   1.0000   1.0000   1.0000   1.0000   1.0000   1.0000   1.0000
     1.0000   1.0000   1.0000   1.0000   1.0000   1.0000   1.0000   1.0000
     1.0000   1.0000   1.0000   1.0000   1.0000   1.0000   0.0000   0.0000
     0.0000   0.0000

          k = 0.0625 0.3125 0.3125 (  3902 PWs)   bands (ev):

     5.3964   7.9670   7.9670   8.4097   8.5987   8.6587   8.6587   9.1106
     9.2942   9.2942   9.4415   9.6234   9.8160  10.0896  10.2497  10.3247
    10.3247  10.6649  10.6649  10.6722  10.7346  12.4692  12.4692  16.1973
    17.4913  21.2554

     occupation numbers 
     1.0000   1.0000   1.0000   1.0000   1.0000   1.0000   1.0000   1.0000
     1.0000   1.0000   1.0000   1.0000   1.0000   1.0000   1.0000   1.0000
     1.0000   1.0000   1.0000   1.0000   1.0000   0.1167   0.1167   0.0000
     0.0000   0.0000

          k = 0.0625 0.3125 0.4375 (  3900 PWs)   bands (ev):

     6.3066   7.2805   8.3321   8.4828   8.7516   8.8282   8.8499   8.9902
     9.0283   9.1938   9.3238   9.5024   9.9230  10.1077  10.1337  10.1754
    10.1788  10.4213  10.6322  10.6548  10.9831  11.4894  13.4321  14.6595
    18.6824  20.1623

     occupation numbers 
     1.0000   1.0000   1.0000   1.0000   1.0000   1.0000   1.0000   1.0000
     1.0000   1.0000   1.0000   1.0000   1.0000   1.0000   1.0000   1.0000
     1.0000   1.0000   1.0000   1.0000   1.0000   1.0000   0.0000   0.0000
     0.0000   0.0000

          k = 0.0625 0.4375 0.4375 (  3902 PWs)   bands (ev):

     7.0708   7.8151   7.8151   8.2264   8.9788   8.9788   8.9951   9.0087
     9.1241   9.1731   9.1731   9.3837   9.8988  10.0035  10.0035  10.0050
    10.2224  10.4030  10.4030  10.4898  11.4489  12.1869  12.1869  13.1951
    19.8633  21.3170

     occupation numbers 
     1.0000   1.0000   1.0000   1.0000   1.0000   1.0000   1.0000   1.0000
     1.0000   1.0000   1.0000   1.0000   1.0000   1.0000   1.0000   1.0000
     1.0000   1.0000   1.0000   1.0000   1.0000   1.0811   1.0811   0.0000
     0.0000   0.0000

          k = 0.1875 0.1875 0.1875 (  3899 PWs)   bands (ev):

     4.3782   7.9878   7.9878   7.9878   8.4187   8.4187   8.4187   9.2848
     9.6422   9.6422   9.8623   9.8623   9.8623  10.2925  10.2925  10.4035
    10.4035  10.4035  10.9273  10.9273  10.9273  13.5927  13.5927  13.5927
    20.7380  20.7380

     occupation numbers 
     1.0000   1.0000   1.0000   1.0000   1.0000   1.0000   1.0000   1.0000
     1.0000   1.0000   1.0000   1.0000   1.0000   1.0000   1.0000   1.0000
     1.0000   1.0000   1.0000   1.0000   1.0000   0.0000   0.0000   0.0000
     0.0000   0.0000

          k = 0.1875 0.1875 0.3125 (  3906 PWs)   bands (ev):

     5.0597   7.7488   8.2190   8.2190   8.5777   8.5777   8.5895   9.1845
     9.5041   9.5041   9.5659   9.6596   9.6917  10.1855  10.2581  10.2581
    10.2652  10.4537  10.8790  10.8790  10.8899  12.0273  14.4298  14.4298
    18.8107  18.8107

     occupation numbers 
     1.0000   1.0000   1.0000   1.0000   1.0000   1.0000   1.0000   1.0000
     1.0000   1.0000   1.0000   1.0000   1.0000   1.0000   1.0000   1.0000
     1.0000   1.0000   1.0000   1.0000   1.0000   1.0053   0.0000   0.0000
     0.0000   0.0000

          k = 0.1875 0.1875 0.4375 (  3895 PWs)   bands (ev):

     5.9987   7.0170   8.4441   8.4441   8.6876   8.6876   8.8041   9.0134
     9.2585   9.2585   9.4701   9.5758   9.8020   9.9729  10.1373  10.1373
    10.4749  10.6298  10.7847  10.8301  10.8301  11.0213  15.3672  15.3672
    17.3334  17.3334

     occupation numbers 
     1.0000   1.0000   1.0000   1.0000   1.0000   1.0000   1.0000   1.0000
     1.0000   1.0000   1.0000   1.0000   1.0000   1.0000   1.0000   1.0000
     1.0000   1.0000   1.0000   1.0000   1.0000   1.0000   0.0000   0.0000
     0.0000   0.0000

          k = 0.1875 0.3125 0.3125 (  3893 PWs)   bands (ev):

     5.6842   7.9667   7.9667   8.2558   8.7328   8.7753   8.7753   9.1929
     9.3659   9.3659   9.4556   9.6183   9.6723  10.0562  10.0562  10.0655
    10.3143  10.6058  10.8361  10.8480  10.8480  12.6736  12.6736  14.9162
    17.0965  19.6191

     occupation numbers 
     1.0000   1.0000   1.0000   1.0000   1.0000   1.0000   1.0000   1.0000
     1.0000   1.0000   1.0000   1.0000   1.0000   1.0000   1.0000   1.0000
     1.0000   1.0000   1.0000   1.0000   1.0000   0.0002   0.0002   0.0000
     0.0000   0.0000

          k = 0.1875 0.3125 0.4375 (  3893 PWs)   bands (ev):

     6.5133   7.3603   8.1395   8.2313   8.8853   8.9259   8.9998   9.1418
     9.3158   9.3715   9.4016   9.5110   9.7223   9.8602   9.9529   9.9641
    10.4605  10.7116  10.7701  10.7720  10.8970  11.4826  13.5337  14.5409
    16.9133  18.0275

     occupation numbers 
     1.0000   1.0000   1.0000   1.0000   1.0000   1.0000   1.0000   1.0000
     1.0000   1.0000   1.0000   1.0000   1.0000   1.0000   1.0000   1.0000
     1.0000   1.0000   1.0000   1.0000   1.0000   1.0000   0.0000   0.0000
     0.0000   0.0000

          k = 0.1875 0.4375 0.4375 (  3902 PWs)   bands (ev):

     7.1351   7.7041   7.7041   7.9860   9.1053   9.2041   9.2041   9.2871
     9.3496   9.3496   9.4256   9.4564   9.6937   9.7910   9.7910   9.8110
    10.4644  10.6255  10.6255  10.6645  11.3548  12.1593  12.1593  13.1722
    17.7894  19.0973

     occupation numbers 
     1.0000   1.0000   1.0000   1.0000   1.0000   1.0000   1.0000   1.0000
     1.0000   1.0000   1.0000   1.0000   1.0000   1.0000   1.0000   1.0000
     1.0000   1.0000   1.0000   1.0000   1.0000   1.0672   1.0672   0.0000
     0.0000   0.0000

          k = 0.3125 0.3125 0.3125 (  3908 PWs)   bands (ev):

     6.2089   7.9398   7.9398   7.9398   8.9796   8.9796   8.9796   9.3557
     9.4870   9.4870   9.4870   9.5914   9.5914   9.8561   9.8561   9.8561
    10.5455  10.5455  10.8927  10.8927  10.8927  13.0654  13.0654  13.0654
    17.7641  17.7641

     occupation numbers 
     1.0000   1.0000   1.0000   1.0000   1.0000   1.0000   1.0000   1.0000
     1.0000   1.0000   1.0000   1.0000   1.0000   1.0000   1.0000   1.0000
     1.0000   1.0000   1.0000   1.0000   1.0000   0.0000   0.0000   0.0000
     0.0000   0.0000

          k = 0.3125 0.3125 0.4375 (  3896 PWs)   bands (ev):

     6.8555   7.4666   7.9120   7.9120   9.1112   9.1112   9.2664   9.4766
     9.5193   9.5217   9.5966   9.6376   9.6376   9.6893   9.7573   9.7573
    10.7378  10.7649  10.8433  10.8433  10.8601  11.6134  13.4879  13.4879
    16.5784  16.5784

     occupation numbers 
     1.0000   1.0000   1.0000   1.0000   1.0000   1.0000   1.0000   1.0000
     1.0000   1.0000   1.0000   1.0000   1.0000   1.0000   1.0000   1.0000
     1.0000   1.0000   1.0000   1.0000   1.0000   1.0000   0.0000   0.0000
     0.0000   0.0000

          k = 0.3125 0.4375 0.4375 (  3893 PWs)   bands (ev):

     7.2291   7.5794   7.5794   7.7217   9.2711   9.3327   9.3327   9.4711
     9.5413   9.6025   9.6025   9.6235   9.8677   9.8677   9.8946   9.9068
    10.6816  10.8084  10.8084  10.8121  11.1524  12.0807  12.0807  12.8608
    16.4394  17.3320

     occupation numbers 
     1.0000   1.0000   1.0000   1.0000   1.0000   1.0000   1.0000   1.0000
     1.0000   1.0000   1.0000   1.0000   1.0000   1.0000   1.0000   1.0000
     1.0000   1.0000   1.0000   1.0000   1.0000   1.0197   1.0197   0.0000
     0.0000   0.0000

          k = 0.4375 0.4375 0.4375 (  3897 PWs)   bands (ev):

     7.3452   7.5044   7.5044   7.5044   9.4080   9.4080   9.4080   9.4747
     9.4747   9.5039   9.5039   9.5039  10.3911  10.3911  10.3911  10.8259
    10.8259  10.8295  10.8716  10.8716  10.8716  11.9519  11.9519  11.9519
    16.3109  16.3109

     occupation numbers 
     1.0000   1.0000   1.0000   1.0000   1.0000   1.0000   1.0000   1.0000
     1.0000   1.0000   1.0000   1.0000   1.0000   1.0000   1.0000   1.0000
     1.0000   1.0000   1.0000   1.0000   1.0000   1.0005   1.0005   1.0005
     0.0000   0.0000

     the Fermi energy is    12.3930 ev

!    total energy              =    -852.38888994 Ry
     total all-electron energy =    -13239.907954 Ry
     estimated scf accuracy    <          6.3E-11 Ry
     smearing contrib. (-TS)   =       0.00042852 Ry
     internal energy E=F+TS    =    -852.38931846 Ry

     The total energy is F=E-TS. E is the sum of the following terms:
     one-electron contribution =    -114.18190336 Ry
     hartree contribution      =     123.21883856 Ry
     xc contribution           =    -178.48916639 Ry
     ewald contribution        =    -323.55635364 Ry
     one-center paw contrib.   =    -359.38073364 Ry
      -> PAW hartree energy AE =      97.92787370 Ry
      -> PAW hartree energy PS =     -97.22227230 Ry
      -> PAW xc energy AE      =    -134.90382762 Ry
      -> PAW xc energy PS      =      44.35304273 Ry
      -> total E_H with PAW    =     123.92443996 Ry
      -> total E_XC with PAW   =    -269.03995127 Ry

     convergence has been achieved in  10 iterations

     Writing all to output data dir /Users/vittoriodibona/Desktop/Tutorial_LAMMPS/Esame/CopperQE/3_electronic/tmp/Cu_fcc.save/

     init_run     :    169.81s CPU     93.81s WALL (       1 calls)
     electrons    :   5818.73s CPU   3069.32s WALL (       1 calls)

     Called by init_run:
     wfcinit      :    118.86s CPU     66.87s WALL (       1 calls)
     wfcinit:atom :      0.02s CPU      0.01s WALL (      20 calls)
     wfcinit:wfcr :    118.57s CPU     66.69s WALL (      20 calls)
     potinit      :      0.14s CPU      0.14s WALL (       1 calls)
     hinit0       :      0.48s CPU      0.45s WALL (       1 calls)

     Called by electrons:
     c_bands      :   4863.93s CPU   2572.24s WALL (      11 calls)
     sum_band     :    417.68s CPU    223.36s WALL (      11 calls)
     v_of_rho     :      0.60s CPU      0.51s WALL (      11 calls)
     v_h          :      0.03s CPU      0.03s WALL (      11 calls)
     v_xc         :      0.57s CPU      0.48s WALL (      11 calls)
     newd         :    583.06s CPU    296.87s WALL (      11 calls)
     PAW_pot      :      2.08s CPU      1.91s WALL (      11 calls)
     mix_rho      :      0.28s CPU      0.17s WALL (      11 calls)

     Called by c_bands:
     init_us_2    :      0.78s CPU      0.46s WALL (     460 calls)
     init_us_2:cp :      0.78s CPU      0.46s WALL (     460 calls)
     cegterg      :   4824.90s CPU   2549.11s WALL (     220 calls)

     Called by sum_band:
     sum_band:wei :      0.07s CPU      0.01s WALL (      11 calls)
     sum_band:loo :    408.96s CPU    217.80s WALL (      11 calls)
     sum_band:buf :      0.13s CPU      0.10s WALL (     220 calls)
     sum_band:ini :      0.16s CPU      0.10s WALL (     220 calls)
     sum_band:cal :    376.65s CPU    199.16s WALL (     220 calls)
     sum_band:bec :      0.05s CPU      0.03s WALL (     220 calls)
     addusdens    :      5.50s CPU      3.34s WALL (      11 calls)
                                        0.00s GPU  (      11 calls)
     addusd:skk   :      0.01s CPU      0.06s WALL (      11 calls)
                                        0.00s GPU  (      11 calls)

     Called by *egterg:
     cdiaghg      :    250.35s CPU    114.38s WALL (     814 calls)
     cegterg:over :   1397.68s CPU    745.71s WALL (     614 calls)
     cegterg:upda :    234.88s CPU    128.19s WALL (     614 calls)
     cegterg:last :    223.98s CPU    126.54s WALL (     463 calls)
     h_psi        :   1776.08s CPU    939.99s WALL (     854 calls)
     s_psi        :    183.29s CPU     95.55s WALL (     854 calls)
     g_psi        :      0.20s CPU      0.08s WALL (     614 calls)

     Called by h_psi:
     h_psi:calbec :   1299.81s CPU    720.54s WALL (     854 calls)
     vloc_psi     :    298.82s CPU    125.66s WALL (     854 calls)
     add_vuspsi   :    177.04s CPU     93.58s WALL (     854 calls)

     General routines
     calbec       :   1676.44s CPU    919.68s WALL (    1074 calls)
     fft          :      0.50s CPU      0.41s WALL (     142 calls)
     ffts         :      0.29s CPU      0.23s WALL (      22 calls)
     fftw         :    323.89s CPU    141.06s WALL (   37194 calls)
     interpolate  :      0.03s CPU      0.03s WALL (      11 calls)

     Parallel routines

     PAW routines
     PAW_pot      :      2.08s CPU      1.91s WALL (      11 calls)
     PAW_symme    :      0.33s CPU      0.22s WALL (      22 calls)

     PWSCF        :      1h39m CPU  52m43.68s WALL


   This run was terminated on:  13:43:52  24Jan2026            

=------------------------------------------------------------------------------=
   JOB DONE.
=------------------------------------------------------------------------------=
